#BIOSYM hessian 1
@Type: Hessian Update
@Units
 distance: 	A
 energy: 	Kcal/Mol
#header
@natom 19

#label
L1      L2      L3      L4      L5      L6      L7      L8      L9      L10     L11     L12     L13     L14     L15     L16     L17     L18     L19

#element
Li Li Li Li Li Li Li Li Li Li Li Li Li Li Li Li Li Li Li

#matrix
57
 3.249144965666E+00
 1.349771687985E+00 1.489628218343E+01
 1.707845352558E+00 -6.768416790560E+00 1.685514016158E+01
 1.048657135530E-01 7.528908240818E-01 7.373641036025E-01 1.212192027793E+02
 -7.952038992964E-01 -2.458637986523E+00 6.253496426928E-01 -4.957253971733E+01 1.065036141916E+02
 4.875755800927E-01 6.463069077404E-01 -2.415997405768E+00 -2.261264480517E+01 -7.179910024945E+00 2.091988055323E+01
 -6.829168979678E-01 2.552273757581E-03 1.361427920179E+00 -2.540405711443E+01 3.633929291300E+01 -7.316273874334E-01 1.460598963747E+02
 -1.287568942080E+00 -6.892293043296E+00 7.772373096008E-01 3.425242801880E+01 -2.588740468250E+01 4.046068922212E+00 2.689008761846E+00 6.806534975459E+01
 -2.305367965899E+00 -7.997090118479E-01 1.402122587660E+00 -7.300569400165E+01 7.950709242176E+01 -5.999347663396E+00 3.403881730146E+01 -7.174622398039E+01 1.946012527336E+02
 1.968296493194E+00 2.719661553379E+00 -2.595440330803E+00 -7.319562623175E-01 -2.873582546759E-02 9.812785566984E-01 -3.906118734896E+00 9.863990926360E-01 -1.284908177198E+00 8.183679308855E+00
 -1.222089331174E+00 -2.950112611024E+00 1.121509725196E+00 1.360697960669E+00 3.803080519514E-01 -2.275171148357E-01 -1.352917158689E+00 -1.168310575656E-01 -1.733094139512E-01 -1.944107842726E-01 3.562734493975E+00
 8.513586595313E-01 -1.028692882044E+00 2.452165591782E+00 -2.894745490266E-01 3.422444603635E-01 -3.602313093222E-02 2.371492704590E-02 1.826228843493E+00 2.132782088786E-01 -2.586790271318E-01 -4.843482622123E-01 1.242251000743E+00
 -9.713503165118E-01 -1.302474596120E+00 9.154942283871E-01 1.463567690863E+00 4.723348282204E-01 -6.077986733568E-01 -5.690980322542E-01 3.757632227265E-01 -9.213788902283E-01 -6.333041975633E-01 1.001778269149E+00 -2.570074906905E-01 1.145214818571E+00
 -2.870625752517E+00 4.623143596079E-01 -7.938427160194E+00 5.465273788640E-01 -4.175345789446E-01 1.105302484632E+00 4.631222701532E-01 1.297577255126E-01 -2.061287192954E+00 -9.733837482288E-01 4.498681176975E-01 -2.175547276044E+00 4.924234588830E-01 8.755503589545E+00
 -3.050592109659E+00 5.531785952093E-01 -6.532751586196E+00 4.428229289492E+00 -2.322932058246E+00 -6.413885889008E-01 -5.131642635099E+00 3.131584896613E+00 -5.666453599363E+00 -1.036632591151E+00 -1.517851796351E-01 -1.932834767284E+00 4.498288839771E-01 6.048964149130E+00 6.773147086746E+00
 -6.648308757445E-01 -6.039957582568E+00 2.700925362757E+00 -1.355509542081E+00 1.874306633226E-01 -3.521607312576E-01 -1.544124952088E+00 1.957015828347E+00 3.835537592764E+00 8.708532241051E-01 2.104328509074E-01 5.676873083971E-01 3.877914864309E-01 -1.470677332367E-01 1.155647506088E-01 6.050449414076E+00
 -3.243151745715E-01 1.440222350780E+00 -6.961360798434E-01 1.886757407212E-01 -4.876924544897E-01 -4.822847516175E-01 1.400513120991E-01 -3.168374967965E+00 3.521631367186E+00 -1.247498124075E+00 3.611042478020E-01 -1.587775625277E-01 -4.384005616969E-01 2.218484468369E-01 -7.355993832342E-02 -1.721472113095E+00 1.895744446975E+00
 1.677137851463E+00 -2.429821519819E+00 -2.372802949871E+00 -1.027000496284E-01 1.490556025668E-01 4.550407357236E-01 5.745078628839E-01 5.105916831740E+00 -4.256309355365E+00 2.683161364724E-01 -1.111717177252E+00 5.252107160131E-01 -9.806610446396E-01 -1.589516984354E-01 -1.866581818093E-02 -5.558527940195E-01 -2.580570834220E-01 5.755293457274E+00
 6.021630284349E-01 1.956698123900E+00 -4.138929142507E-01 -2.108064800626E+00 4.486114250116E+00 -1.387725987900E+00 -7.774460783587E+00 1.286221965833E+01 -2.331775790709E+01 1.216575492524E+00 -1.000202634242E-01 -5.037658371183E-01 -3.511048812059E-01 -6.424485139979E-01 1.821810476360E+00 -1.543962512264E+00 -1.403506215177E-01 1.244335344357E+00 2.839290240171E+01
 2.257168880702E-01 2.388595977614E+00 -4.201717756794E+00 2.887837169676E+00 -3.706820767155E+00 5.587224652470E+00 3.408305236405E+00 1.248864334658E+01 -5.977539144594E+00 -1.070711922047E+00 -3.788161265789E+00 3.364782471408E-01 -1.084324842739E+00 3.219262183187E+00 2.651367672054E+00 -2.142874443432E-01 -1.122611442067E+00 2.307941912474E+00 -7.025409059943E+00 6.516496043927E+01
 -9.669785875731E-01 -1.840902832378E+00 1.755926518851E+00 9.837871131014E+00 8.183714358969E-01 -4.742537081643E+01 1.734861827867E+01 -2.923534282437E+01 5.984385935906E+01 4.715168025595E-01 1.218006887881E+00 -3.403086236697E+00 1.962444611195E+00 -2.578036127672E+00 3.568241187208E+00 -9.054872586814E-01 3.773472808848E-01 5.776029419113E+00 -6.938926432527E+00 2.490285548607E+00 2.834093358135E+02
 1.942804721096E-01 4.680111663989E+00 3.518842790968E+00 8.075794574006E-01 -8.636542114522E-01 -1.615625977830E+00 1.695376698299E+00 -1.229865995072E+00 4.983462960915E-01 -3.123219479453E+00 -7.978618616200E-01 1.038144034889E+00 -7.768753929796E-01 -2.923080354331E+00 -2.166167652130E+00 -3.454970429414E+00 2.119502106849E+00 -1.814564388261E+00 1.724275819007E+00 2.658803989461E+00 -2.999805274703E+00 8.342827999348E+00
 -1.934493572875E-01 3.370643112336E-01 -2.104130316847E-01 1.329248235602E-01 -2.611161353200E+00 -3.444077834172E-01 -1.046246383461E+00 3.890429750989E-01 8.856025098892E-01 -1.018340974307E+00 -1.032520400927E+00 4.929856792973E-01 -5.842880304521E-01 -6.567592828363E-02 2.325638347912E-01 -1.685240481680E-02 5.759608554468E-01 4.829604534127E-01 -1.415651689398E+00 2.363724884616E-01 -7.257491353490E-02 1.466013448225E+00 2.209952796889E+00
 -4.735777772124E-01 5.289694582510E+00 -1.530958034974E+00 -1.031162516337E+00 -4.156286180431E+00 -2.373946152731E-02 1.141873221259E+00 -1.086968098395E+01 1.828639679352E+00 -3.762942504945E+00 7.026593986001E-02 -1.061298379943E+00 -6.640094308191E-01 1.496247781048E+00 -3.160218015969E-01 -4.579650951512E+00 3.052011519993E+00 -1.796695901089E+00 -2.359356123904E+00 -1.299063996669E+00 -1.957274529336E+00 5.381333461516E+00 1.700716519555E+00 1.175028238432E+01
 -4.033136974341E+00 -8.995571056426E+00 -2.982215781235E+00 -2.898271009559E+01 -1.028783870093E+01 9.422929774424E-01 -2.059205023767E+01 -4.694802341791E+01 5.115089502971E+01 -5.935565818622E+00 4.038147169749E+00 2.340995737459E+00 1.512505506447E+00 4.773500387680E+00 -3.538467913045E+00 5.707054042199E+00 2.154847155362E+00 -6.469564660802E+00 -4.295944082485E+01 -2.744625961036E+01 -5.324712506528E+01 -4.757721425286E+00 3.907909810937E+00 8.865638082682E+00 2.168258168029E+02
 3.867856533828E+00 -1.482779164137E+01 1.955761161845E+01 -5.063073979593E+01 9.861736048044E+00 -3.789301948587E+00 -6.381796287964E-01 -1.038750356526E+02 1.047477847584E+02 1.485431528783E-01 -1.163876876602E-02 7.855860012065E+00 2.055818392692E+00 -1.151989045335E+01 -2.247611121806E+01 1.870781207353E+01 -1.914654026909E+00 -1.409720117600E+01 -7.221096799387E+01 -4.822412467966E+01 -6.389221871945E+01 -8.811177516658E+00 4.173709197826E+00 5.894463035545E+00 3.038558415538E+02 5.715796612103E+02
 2.858994702765E-01 -6.881803621135E-01 -7.908037336508E+00 -2.262503013712E+01 1.857915166082E+01 -1.613597397428E-01 1.038773419028E+01 -4.031165487968E+01 3.389564514705E+01 8.079409881657E+00 1.271211851357E+00 1.229224931541E+00 8.627435107861E-01 3.029874035794E+00 -3.829627427407E+00 8.546629123607E+00 -2.200684199792E+00 -5.839681408422E+00 -2.258330519639E+01 2.266564077468E-01 -4.249533091926E+01 -8.461243938810E+00 -1.484583652089E+00 -4.898118399084E+00 1.129103791952E+02 2.076327921860E+02 1.271980529703E+02
 5.890408366404E-01 -1.710224279032E+00 -4.269097541848E+00 -5.578343422466E+01 -1.957889024994E+01 2.205103895239E+01 -6.057284985778E+01 -1.021674067574E+01 2.392020278808E+01 2.168985529622E+00 6.989637444150E-01 -1.523075629946E+00 -1.573669724668E+00 1.241874318895E-01 3.545736860903E+00 1.183355894255E+00 -2.754004527349E-01 5.986686931726E+00 1.492149225605E+01 2.901343353184E+00 2.278898401994E+01 -2.545440083417E+00 -3.806749831715E-01 -3.581026880689E+00 -2.222696734959E+01 -6.135464157313E+01 -2.324895278607E+01 1.408998558204E+02
 -1.051673498052E+00 2.710326624112E+00 6.099369897972E-01 2.533119287074E+01 1.975875733269E+01 7.192549069647E+00 1.448871957913E+01 6.403854129411E+01 -2.596020937027E+01 -2.799752722600E+00 -7.933430880071E-01 -4.903280850273E+00 -1.823816099468E+00 -6.446581389790E-01 9.965609889044E+00 -9.349446859181E+00 1.947735580033E+00 9.675404206950E+00 5.433480752546E+01 2.154806308215E+01 1.074913681511E+02 4.075482433045E+00 -2.750012303687E+00 -6.008023413986E+00 -3.049276733772E+02 -4.706784726746E+02 -2.171821473823E+02 5.033530264371E+01 5.843244279962E+02
 1.760140589829E+00 3.974471409296E+00 -6.291491081043E-01 -1.111529243096E+01 3.595446159517E+00 1.886496667020E+01 4.377618951800E+01 -5.738482747661E-01 -7.286524730819E+00 7.301032576818E-01 -1.791119354455E+00 1.129176654760E+00 -8.139365152408E-01 2.062773929365E+00 -5.257744777552E+00 7.983228963429E-01 -1.308431825138E+00 -5.885442829918E+00 -1.702553316702E+01 1.317616115964E+01 -1.361951978675E+02 -2.360890523165E-01 -1.565697446923E+00 3.875910680817E+00 7.610109304124E+01 1.175404628873E+02 6.425006069124E+01 -4.938877832753E+01 -1.730133951754E+02 1.346565747245E+02
 1.460822103826E+00 -7.856633689791E-01 -1.026001068067E+00 1.463803408729E+00 1.979916904140E+01 -3.810056455897E+00 -6.541603144082E+00 -7.343307831827E+00 1.239338043196E+00 3.073714159861E+00 1.587552708685E+00 1.350086587996E+00 -2.143755385548E+00 -3.472755583003E+00 -3.236887752850E-01 5.821203390416E-01 1.443580078753E+00 1.794610977175E+00 -4.482290099879E+00 -2.352200566502E+00 -5.462058500649E+00 6.574829098290E-01 1.685125390564E-02 -2.578109789077E+00 4.414580656717E+00 5.966377923303E+00 6.957470833192E+00 -2.825170661140E+01 -3.808684490917E+00 6.125748180435E+00 1.457558531884E+02
 4.299504002396E-01 -2.781356309995E-01 -1.021299825016E+00 6.066188066833E+01 -1.110210232480E+02 6.885766615073E+00 -4.379516708624E+01 3.200591273452E+01 -9.798704574296E+01 2.180701035357E+00 1.100867364684E+00 -5.650097702947E-01 5.651810325542E-02 3.744651322095E-01 3.379101079087E+00 9.849939871216E-01 -4.766511574395E-02 6.272547048880E-01 -6.928276364845E+00 -1.722993000306E+00 -1.148466013927E+01 -2.338215481543E+00 2.068872927137E+00 1.755304036095E+00 8.964727836745E+00 -1.203012472638E+01 -1.818117600766E+01 -4.580626357994E-01 -2.533199217928E+01 2.073433173290E+00 1.885108578457E+01 1.506045665727E+02
 -9.391620493740E-02 9.453208681147E-01 -1.301138069230E-01 -7.365664521138E+00 1.068352841598E+01 3.501936610904E+00 5.152018331163E+00 4.392571171904E+00 7.815666041979E+00 -5.295263176036E-01 -3.336906149943E-01 -5.365969421224E-01 -6.065225165378E-02 9.635187372292E-02 4.761670996676E-01 -1.342773449599E+00 8.054219360629E-03 8.928082869939E-01 6.017604757133E+00 3.854160003227E-01 8.910158387294E+00 6.152271268835E-01 -5.622936426603E-01 -8.343640938688E-01 -3.611949663510E+01 -5.201483475506E+01 -2.253849807702E+01 1.610995208653E+01 7.156753561274E+01 -2.215642984838E+01 -2.349849185903E+01 -1.906522800983E+01 1.679499584803E+01
 2.814150128389E-03 1.188693200390E+00 -8.861538716502E-01 2.730093368080E+00 -4.262206637832E+00 2.878625144330E-01 -3.654665297237E+00 -4.935070710731E-01 -4.182391485133E+00 8.550565560356E-02 -2.592238774737E-01 -4.200434713490E-01 8.554910900649E-02 7.035922015063E-01 7.174757810561E-01 -2.911451069608E-01 -7.750278017272E-03 -4.966611520374E-01 -6.394101722948E-01 6.357788364272E-01 -1.864340324573E+00 -3.520824115910E-01 -6.641511246764E-02 8.928608090995E-01 2.113153937338E+00 2.421598347765E+00 3.736200769067E-02 -2.099393932517E+00 -1.669802612831E+00 9.032353195857E-01 -5.447110511731E+00 7.453244287645E+00 5.881085159419E-01 1.014327501748E+01
 7.310831463797E-01 2.311014461698E-01 1.090888544871E+00 7.563383098588E+00 -1.072103350799E+01 1.441385916469E+00 -1.565950914077E+01 6.694307182664E+00 -1.791036731846E+01 1.542933427073E+00 4.858988210208E-01 5.474799637079E-01 6.445633678065E-02 -1.993650010861E+00 7.655770962146E-02 2.059562006976E-01 -4.116491711456E-01 1.237460671467E-01 1.166178895417E+00 -1.306938518274E-01 -8.733879214868E+00 2.421118978209E-01 -2.572188731625E-01 -1.863979118825E+00 9.520278294900E-01 -2.248370600719E+00 -2.072129805134E+00 1.780806915171E+00 -2.942252876697E+00 -9.044772851596E-01 1.703066949996E+01 1.383084749154E+01 -4.518101530629E+00 1.712694505514E+00 2.731626880261E+01
 -5.906106546213E-01 7.222494159730E-02 -1.591200684249E+00 9.941885051190E-01 -8.303233553051E-01 5.037529718610E-01 -2.544727001618E+00 -9.756312106419E-01 -3.174972345528E+00 -1.563467057129E+00 7.488966371030E-01 -7.017887617561E-01 4.127521397586E-01 1.591230234737E+00 1.375591580901E+00 -9.538185541210E-01 3.949086314148E-01 2.096230059370E-01 -6.386031408083E-01 -1.366271305963E-01 5.646615580596E-04 -4.497152619700E-01 -3.030970758122E-01 1.657734475823E+00 2.612541855387E+00 -2.322635552832E+00 -1.971959865622E+00 1.277090724291E-01 5.670098284876E-01 -7.250621299378E-01 4.304399833698E+00 1.174354861281E+00 -8.239618060466E-01 1.786028211737E+00 4.346797864529E+00 8.944411234092E+00
 -1.885725267562E+00 -2.235053993440E+00 -8.406818196589E-01 2.242163645583E+00 3.569160837437E+00 -4.530736737353E-01 1.668137830557E+00 3.043798122459E+00 8.783796852381E-01 -1.233863743174E-01 -5.181317862775E-02 -8.300061883365E-02 5.533586231221E-01 1.806341329777E+00 1.399279755458E+00 1.610659881830E+00 -3.521524153776E-01 8.931634994870E-02 -6.709370987555E-01 1.271854106933E+00 8.234968468828E-01 -1.386029693216E+00 2.731304541341E-01 -1.128763848664E+00 -3.334408815629E+00 -7.731427507980E+00 -9.421659517610E-01 1.217075715842E+00 8.673866051205E-01 1.534386029930E+00 -4.830120618934E+00 -3.683187500543E+00 1.086846711292E+00 -3.618287295599E+00 -5.242162887202E+00 3.557667287391E-01 1.964729209341E+01
 8.971410244392E-01 4.246122005881E+00 -3.705922180397E+00 -1.452337969548E+01 1.296212171058E+01 -5.685403062089E-02 2.167092232695E+01 -1.470645812725E+01 3.840701740479E+01 -3.154399359566E+00 -2.264434275977E-01 -1.840988632477E+00 -2.618263034114E-02 2.846334253859E+00 -7.588240379242E-01 -3.444630640473E+00 1.619324260846E+00 -2.071163395788E-02 1.909591696341E+00 -3.740511194967E+00 1.092403933430E+01 4.183795621397E-01 -1.192577545018E+00 5.806016337877E+00 -4.369369481129E+00 -2.621487485550E+00 8.278621155181E-01 9.552849362701E+00 4.056961489970E+00 1.659899204965E+00 2.532660543881E+00 -1.541108914819E+01 1.184161697889E+00 -4.978251856663E+00 -1.157057876313E+01 1.746723205078E+00 -5.311733044980E+00 7.579824319904E+01
 -2.918142535279E-01 -9.963811459365E-01 1.785873511318E-01 6.820727286315E+00 -1.637161528339E+01 7.918317174146E-01 -2.317091483119E+01 1.708110956665E+01 -4.910928214079E+01 2.257739398066E+00 1.240586102301E+00 6.673534855591E-01 3.838232473674E-01 -8.603659647824E-01 2.102625070353E+00 -2.750492682117E-01 -1.529323208692E+00 6.716262626433E-02 1.830994050665E+00 2.597726848537E+00 -6.893861827203E+00 -2.547951140349E-01 5.009364144016E-01 -3.680845714816E+00 1.020765526338E+01 2.187516243991E+00 -3.023192543611E-01 -1.093733897826E+01 -5.475155801315E+00 -9.360043619003E+00 2.763103753742E+00 1.966545369283E+01 -2.698198515072E+00 3.512727419941E+00 9.962612158177E+00 -4.575357359201E-01 -1.381739657061E+01 -4.123981420321E+01 7.374826392850E+01
 5.117689792199E-01 5.880596841613E+00 -2.422909638243E+00 1.800342597523E+01 -1.143679417225E+01 -4.515168451389E-01 -2.383898577853E+01 1.132225234582E+01 -4.383581415479E+01 -5.295406345825E-01 -2.205968277917E+00 -1.969864493291E+00 -2.829573101676E-01 2.361470707466E+00 4.699380451491E+00 -4.408742352689E+00 -2.394719001165E-01 5.247153137343E-01 1.023791507259E+01 2.964254317984E+00 -9.230904798731E+00 1.554472996365E+00 -3.359575603310E-02 2.377370907200E+00 -5.001950503203E+01 -8.741698022578E+01 -3.816806109461E+01 -6.375587226365E+00 5.908964681505E+01 -1.591433907811E+01 -2.384267746824E+00 1.257118671978E+01 4.140187231406E+00 1.334816258444E+00 1.460212595670E+00 2.545693332476E+00 5.161870791831E-01 2.069610272356E+00 5.971901312534E+00 7.519386676835E+01
 1.311728118555E+00 4.752016316753E+00 -7.910762282331E-01 -2.167755931789E+01 2.689777745809E+01 -3.874382823330E+00 3.952635558937E+01 -3.423157949298E+01 7.847403636859E+01 3.523788084674E+00 -7.243283919331E-01 -5.055866408273E-01 -2.159045074874E+00 -1.519327650407E+00 -4.311745189084E+00 9.713337929156E-01 2.468724578438E+00 -3.217253096665E+00 -8.664790744645E+00 -6.811424402516E+00 2.305190183885E+01 1.273804059586E+00 -4.372620555814E-01 1.849576913949E+00 7.214438586673E+00 3.524653611166E+01 2.136979669841E+01 -6.212924986475E+00 -6.295468009246E+00 5.804723871284E+00 -2.276124640930E+00 -3.573411051863E+01 3.185127298103E+00 -2.215943862033E+00 -7.969882362020E+00 -3.082616174459E+00 -9.803308697337E-01 1.503199080925E+01 -2.510251382386E+01 -6.749466930211E+00 6.066946531267E+01
 2.089579918681E+00 4.359666644560E+00 -1.981702263003E+00 9.487185169567E+01 -9.282128667635E+01 1.212629509543E+01 -1.103604789147E+02 8.653793167245E+01 -2.190372993366E+02 -2.791813872951E+00 -1.240219555878E+00 -4.029351324770E-01 -1.287314492464E-01 2.355173218112E+00 1.036198341138E+01 -8.910027761654E+00 -1.257128663672E+00 5.782395663783E+00 3.758703320763E+01 1.526155144913E+01 -9.735602720656E+01 5.653748620426E+00 6.291446319338E-01 1.867048460341E+00 -9.502590137988E+01 -2.087126418954E+02 -9.610104831692E+01 -4.422500787074E+00 1.233517869676E+02 -2.356543471746E+01 -8.577329675930E-01 1.143973257861E+02 1.541121251821E+00 6.371387438455E+00 2.477524571641E+01 6.020511353170E+00 -1.114027609956E+00 -5.226310166953E+01 6.003599578275E+01 9.710193202361E+01 -9.568283560734E+01 3.430265996976E+02
 -2.305165206667E+00 1.380524687362E+00 4.251422768859E+00 -2.898439929273E+01 3.017251280823E+01 6.975404177416E+00 1.714392370050E+00 1.060091366973E+00 3.312819339944E+01 -4.161782405581E+00 -2.955341893586E+00 -8.474671385924E-01 2.194431343950E+00 1.064110014709E+00 -5.444260245382E-01 -2.042022117652E+00 -6.500055509113E-01 -1.989714882988E+00 1.483445695544E+00 2.147820031530E+01 2.500621279225E+01 2.136302689517E+00 4.767793213583E-02 2.984772649883E+00 -4.483655568970E+01 -5.034465534308E+01 -3.553362428673E+01 2.105679284948E+01 1.127313015487E+02 -3.404827033921E+01 -1.035848423579E+02 -5.227050194938E+01 3.452931632179E+01 2.691752917264E+00 -1.220402842823E+01 -3.122595888217E+00 -1.806052400533E-01 -1.141566431059E+01 4.134169940334E+00 -2.117219960828E+01 -6.076679432388E+00 -1.797043083600E+01 1.785161546977E+02
 9.428797034451E-02 8.164402011779E-01 2.794550753792E+00 -1.022002001346E+01 -8.343752661961E+00 -1.180983074077E+01 -3.885672864602E+01 -6.250521249149E+00 -4.689500435608E+01 -9.411470967097E-01 1.995482936336E+00 -7.851608588382E-01 3.166080683503E+00 -5.743049992650E-01 2.137133388880E+00 -3.069848934157E+00 -3.129770142913E+00 -4.343412196380E-01 2.143814433767E+01 -3.759745890182E+01 -1.985921050103E+01 9.169822723026E-01 -2.900776105321E+00 -5.169456335319E-01 6.069906747495E+01 5.467953691571E+01 3.309635701682E+01 3.955940863002E+01 -1.887873524267E+02 3.324594971531E+01 -3.972551897497E+01 -9.429741468933E+00 -1.654347931901E+01 -6.817360772458E-01 -1.395164854634E+01 -1.972874463606E+00 6.851409041251E+00 -3.624047865511E+00 1.989922578763E+00 9.786641800939E+00 -3.354436387586E+01 3.120269585850E+01 -4.522884592972E+01 2.469218603447E+02
 -1.330921164011E+00 -3.012482787415E+00 5.564964523184E+00 2.633926001276E+01 -6.652535403668E+00 -5.734897023999E-01 9.046742337433E+00 3.939112987766E+01 -4.418140683227E+01 -1.941519336094E+00 9.199146511661E-01 1.953780146517E+00 -6.522084747651E-01 -3.908716793560E+00 -3.131724581112E-01 -3.124396046887E-01 1.305440220209E+00 8.351142077327E-01 2.432654253999E+01 -3.248636579773E+01 -3.829057165629E+01 5.229832731346E+00 1.936596918036E+00 -2.708304714522E+00 -4.457171932219E+01 -7.575212435468E+01 -4.132007415557E+01 -1.319169909059E+01 8.742176728953E+01 -1.875354842454E+01 1.011922219791E+01 1.443572537445E+01 7.122086003648E+00 -1.214167293090E+00 2.896278781652E+00 -1.669136600376E+00 -3.812282000321E-01 -1.768649637244E+00 3.616538290115E+00 -2.531124616210E+00 -1.571075867338E+01 5.199569172422E+01 -6.168030953141E+00 -8.155623709308E+00 8.858331871711E+01
 1.026806281975E+00 2.380173687654E+00 -4.440954665815E-01 4.553704385099E+00 -3.759074354701E+00 1.067481968973E+00 -5.074995086385E+00 -1.871019298224E+00 -8.583886077726E+00 9.549072136081E-01 1.185446185547E+00 -9.093722686378E-01 2.826765064497E-01 -1.140594258283E-01 3.831534443029E-02 -1.598079416542E+00 -6.529725830300E-03 -9.229092687246E-01 2.446909224407E+00 -1.770079771739E+00 -2.470429803595E+00 -5.899103792998E-01 -1.611237124779E+00 8.437204487459E-01 -6.045696974827E+00 -1.004014010867E+01 -2.354555197296E+00 2.603462607940E+00 5.452271669557E+00 1.822408064953E+00 3.435680508837E+00 5.317526351954E+00 -1.747618296898E-01 8.326725558850E-01 2.742097273966E+00 9.821069941562E-01 -3.302746467025E+00 2.301085259445E-01 8.994599770778E-01 4.067446907318E+00 -9.304769485163E-01 1.140856543771E+01 -5.962311837548E+00 2.755751618153E+00 -2.242266200089E+00 8.012994446574E+00
 3.401048865246E-01 1.697737585066E+00 -2.973204973012E+00 -4.225781014773E+00 5.601631671635E+00 -3.773299535488E-01 6.487318341134E+00 -3.253073303728E+00 7.140976191924E+00 9.301007603450E-01 -4.243260208806E-01 -3.850403238323E-01 -3.953184143453E-01 1.184711976414E+00 -1.116400725398E-01 -9.556284530575E-01 1.873478873146E-01 7.040180652196E-01 -3.984067860924E-01 5.254765566397E-02 3.892049680747E+00 -5.985155775369E-01 -1.956738150622E-01 8.141275694394E-01 -5.551801084962E-02 5.386971310814E-01 3.667597609851E+00 -9.987274213504E-01 -1.223355885083E+00 4.986159987071E-01 -4.084060964935E+00 -7.549485541370E+00 1.355706671074E+00 -1.811888425381E-01 -3.834200943554E+00 1.045026314240E+00 6.837545635660E-01 5.280484547419E+00 -4.367264276520E+00 -7.613221229625E-01 3.629899137621E+00 -1.156753389319E+01 3.578056819600E+00 1.232862165195E-02 -4.279356641641E+00 -3.223605430198E+00 6.421716443310E+00
 1.448957304933E+00 2.825380213815E+00 -2.280649592665E+00 -2.907823574246E-02 -3.584794146739E-01 9.205215905856E-01 -1.708849397209E+00 -1.115835218788E+00 -8.326803412006E-01 3.738748359077E+00 6.134221221682E-01 -4.218736702559E-01 -6.985750584339E-01 -3.011357596019E-01 -8.080716456452E-01 -6.981198436358E-01 -1.168277031815E-02 -2.970517246303E-01 1.694446993725E+00 -1.334054470638E+00 3.979901514968E-01 -9.438937297530E-01 -1.124836266106E+00 -6.923356179523E-01 -4.948766378400E+00 -6.563398009963E+00 3.329028183917E+00 3.263176494257E+00 3.125770929232E+00 3.185273922135E-01 3.485756703450E+00 1.252255844507E+00 1.622172899038E-01 -2.195503077896E-01 2.822047156654E+00 -2.130862987379E+00 -2.112607585525E+00 -1.191030667915E+00 1.166944436499E+00 5.911124846528E-02 3.974160197540E+00 -1.128982605781E+00 -5.324803745819E+00 -3.190148996866E+00 -5.827533962699E+00 3.558042931973E+00 8.427759668271E-01 1.048879416569E+01
 9.871034196950E-02 -5.354510082692E-01 9.864781486445E-01 -1.790554629284E+00 2.454321002704E+00 -1.796637251724E-01 3.130453839984E+00 6.580229039734E-03 5.846649666577E+00 7.815640531581E-02 -5.127730545561E-01 5.030966668876E-01 -1.977515985488E-01 -8.723612907630E-01 -8.115488432321E-01 3.792389497790E-01 5.374261280368E-02 2.931810550267E-01 -5.847099695420E-01 1.341367595702E+00 9.721470979447E-01 6.712720970709E-01 4.019363951259E-01 -5.504901870218E-01 -1.233930335289E+00 9.531217609407E-01 6.601896681739E-02 -5.179324878928E-01 1.650669081348E+00 -4.466215078628E-01 -3.265577387087E-01 -3.265862685153E+00 5.736267766495E-01 -8.695247685099E-01 -7.632556844818E-01 -4.585411537120E-01 4.716016943690E-01 6.221454948581E-01 -3.288224492322E+00 -1.639315523209E+00 2.371454012647E+00 -6.770554115544E+00 1.973948398411E+00 -2.758438877138E+00 4.494298257604E-01 -4.002963657440E+00 2.892018055424E+00 -2.996496640919E-01 4.507307215712E+00
 -1.064808883519E+00 -2.265291506341E+00 1.027249837869E+00 3.094946956724E+00 -4.897441082732E+00 3.234486150105E-01 -5.310204875602E+00 3.574935688991E+00 -3.875710172278E+00 -1.031670979461E+00 2.569021131559E-01 3.320018314340E-01 2.298466555008E-01 3.118085541866E-02 1.036703570645E+00 1.371587992114E+00 1.661415898216E-02 -1.108999330196E-02 -5.500984356473E-01 3.388332196568E-01 -3.459643757113E+00 8.335534418950E-02 7.043392475250E-01 -8.684841750544E-01 3.404703615190E+00 5.300039735352E-01 -2.092038394196E+00 8.721754402722E-01 -6.143809756762E-01 -1.453699923989E+00 2.502998574234E+00 6.406294504688E+00 -1.163660915485E+00 2.369409411998E-01 1.906455915782E+00 2.469040028382E-01 2.582197106383E-02 -8.139036232557E+00 -7.776958005629E-01 -8.880848302575E-01 -3.330010584113E+00 7.442483512990E+00 -1.525234729333E+00 -1.992768747127E+00 3.199429697831E+00 2.017506253495E+00 -4.212375492860E+00 -1.311597064367E+00 -1.895276301137E+00 8.330302703620E+00
 2.089124295449E-01 -1.117787993008E+00 5.264871325609E-01 4.845810012804E+00 -7.698324453058E+00 7.535238067346E-01 -1.005754305606E+01 5.118007243256E+00 -1.119015765763E+01 1.118663098139E+00 -1.886495999095E-01 6.439558794014E-01 -9.811850549738E-02 -1.123438738870E+00 2.409365317025E-01 9.330781554172E-01 -4.299470439714E-01 8.163018506598E-01 3.674518628867E-01 -4.534779218203E-01 -5.979769438176E+00 -4.496418568963E-01 4.434731719142E-01 -1.928206884149E+00 3.360812901708E+00 2.591976723368E+00 -1.600651484744E-01 1.287771581181E+00 -5.625485758550E+00 -7.210122806089E-01 3.858230971561E+00 1.014278391609E+01 -2.062794088013E+00 6.596366128890E-01 3.846540237355E+00 -4.017122208108E-01 -1.315283661738E+00 -1.178201574064E+01 6.121337746674E+00 -3.414830409218E-01 -5.760062112025E+00 1.511187361056E+01 -4.106287952439E+00 1.952253932421E+00 2.842281543392E+00 2.289742581552E-01 -1.731554484106E+00 3.002036452554E-01 1.549431096649E+00 4.593963319604E+00 1.032720173036E+01
 1.373485535956E+00 1.334073351728E+00 2.337576559012E-01 -7.074277913396E+00 7.053678332030E+00 -5.294285780010E-01 1.048315261230E+01 -4.035058800592E+00 1.433430031834E+01 1.514094518873E+00 -9.144157028906E-01 8.951320951263E-02 -4.431624726506E-01 -8.539398401934E-01 -2.007277628617E+00 1.077966682290E-01 -2.647833258612E-01 -2.613960332109E-02 3.773201456086E-01 -5.600374000697E-02 5.511414747779E+00 -3.513711710322E-01 -4.589279721478E-01 -3.192220437176E-01 -4.546842454173E+00 3.812439129827E+00 3.912848449405E+00 -1.720612739729E-01 1.373480197987E+00 1.116781961922E+00 -2.953276005926E+00 -9.167944459194E+00 1.357293919216E+00 -2.292629608346E+00 -3.652473751870E+00 -1.579063570990E+00 -9.840285051157E-01 1.619835615613E+01 -1.217104668462E+01 -1.020034513165E+00 8.203558582823E+00 -2.171113924930E+01 1.519134826309E+00 -2.277318860257E+00 -1.579914045627E+00 -7.823727781684E-01 2.217235898094E+00 7.122234791015E-01 4.530163879799E-01 -2.223093882320E+00 -4.172952478894E+00 9.486250570395E+00
 -1.187400817819E+00 -4.247750493792E+00 6.100986841425E-01 1.664700659011E+01 -1.258885368039E+01 1.033133793652E+00 -2.286993583193E+01 1.250661871111E+01 -4.250899247346E+01 1.524710506086E+00 1.641498374554E+00 8.494455959392E-01 3.841222986945E-01 -3.890252217348E-01 1.877937760226E+00 1.587370487214E+00 -8.942453465801E-01 1.221609829245E+00 -9.486943698837E-01 1.369994675370E+00 -1.213469324877E+01 -1.403521239213E+00 4.647684932256E-01 -3.092357468280E+00 4.319371939263E+00 -6.925093597776E+00 -3.456928111103E+00 -4.160162617377E+00 -3.476141193036E+00 -3.099557819247E-01 -2.922477358285E+00 1.547777544022E+01 -8.405571760975E-01 2.630873367217E+00 8.703699822965E+00 6.019183332557E-01 1.056249054961E+01 -6.498168147931E+01 3.819175267586E+01 2.132651169201E+00 -1.914518819562E+01 5.586658825295E+01 7.005523747616E+00 8.652004173363E+00 -1.090516412866E+00 1.675793559628E+00 -4.505927950103E+00 1.338877446028E+00 -2.343067386191E+00 4.234591555071E+00 7.984035341219E+00 -1.938569291302E+01 7.114183987294E+01
 -1.757270448981E-01 1.691972903193E+00 -1.111533180090E+00 -7.293135302597E+00 6.100676015461E+00 -6.765599272973E-01 1.088692207150E+01 -6.561981604001E+00 1.744562474147E+01 -1.763591134144E+00 -5.738231452563E-03 -1.159828327492E+00 3.049484805113E-01 1.840148262938E+00 2.356716992168E-01 -1.001295422481E+00 5.008101054273E-01 -1.224775306267E+00 4.410727658902E-01 -1.309887412078E+00 5.953924754818E+00 4.133091468888E-02 -5.535494087608E-01 2.520562085316E+00 -4.261643551394E-01 2.076513898445E+00 1.720999972406E+00 1.376771978458E+00 1.286274055747E+00 7.284328369062E-01 -1.298611632137E+00 -7.752517242434E+00 6.669576200683E-01 -1.203126323759E+00 -4.916424974601E+00 3.196872388288E-01 -4.872864552361E+00 3.204256231486E+01 -1.752699388237E+01 4.329163468275E-01 7.700779713474E+00 -2.374027878495E+01 -2.042397678977E+00 -1.874011846704E+00 -8.851773273183E-01 -6.068867756877E-02 2.198329476755E+00 -8.915999008681E-01 -1.070801011033E+00 -2.233426751493E+00 -9.521190616908E+00 7.705710062377E+00 -3.066735322482E+01 2.322004560975E+01