#BIOSYM hessian 1
@Type: Hessian Update
@Units
 distance: 	A
 energy: 	Kcal/Mol
#header
@natom 18

#label
L1      L2      L3      L4      L5      L6      L7      L8      L9      L10     L11     L12     L13     L14     L15     L16     L17     L18

#element
Li Li Li Li Li Li Li Li Li Li Li Li Li Li Li Li Li Li

#matrix
54
 3.154056025059E+01
 -8.974333003898E+00 9.114476568056E+00
 1.487864748399E+01 -8.610218187437E-02 2.308549794220E+01
 -2.917504256734E+00 2.891077712317E-01 -2.715104299605E+00 3.207503497070E+01
 -2.258516359944E-02 -6.546406989026E-01 -1.533128935802E+00 1.195148749498E+00 1.843536853062E+01
 -1.348013607166E+00 -7.313953413887E-01 -1.627646765097E+00 -4.840986036309E+00 5.640234628268E+00 1.752392428871E+01
 9.902749583508E-01 -3.527001584050E-02 -6.489220752971E-01 -1.606912938483E+00 4.029475966057E+00 7.708754810470E-01 1.970894094073E+01
 -1.034959374226E+00 3.497099263095E-01 7.922213010126E-01 4.139967718359E+00 -7.821582023111E+00 -4.241964854741E+00 8.205500517117E+00 2.648320259158E+01
 1.277616118246E+00 -8.931460376026E-01 8.316518141058E-01 6.665632541273E-01 -2.496413530370E+00 -1.391825175522E+00 -4.293213970376E-01 6.859830191365E+00 1.289236362411E+01
 3.851582345990E+00 1.026120759903E+00 9.554445413017E+00 -2.516880441892E+00 8.520657643268E-02 1.502078168051E+00 -1.029246098936E+01 -1.792378565176E-01 7.035531705016E+00 7.811682976544E+01
 -4.238831146049E+00 -7.436103036431E-01 -9.569951172115E+00 2.727437270716E+00 3.783701473369E+00 -1.744869042597E+00 -9.480056981903E-01 -1.630357953121E+00 6.920059836927E-01 -5.403412041379E+01 8.382232065255E+01
 -5.224044576471E+00 -9.342907172142E-02 -1.404476124891E+01 7.219005184711E+00 3.003156115296E+00 -1.466830155097E+00 7.534368261298E+00 1.289137781132E-02 -5.302603666722E+00 -9.164151356168E+01 1.084728070889E+02 1.805413292533E+02
 -6.553470505445E+00 -1.109820121227E+00 9.653758359584E-01 2.233265552610E+00 5.312692034779E-01 1.972025454497E+00 -1.601793963490E+00 3.567100276775E-01 -1.072910871699E+00 -6.628780485150E+00 5.521382360203E+00 7.621425704825E+00 3.757272801090E+01
 -1.525252245075E+00 9.803955447737E-01 -2.740744977927E+00 2.247095991700E+00 3.873929199308E-01 6.140066544584E-01 -4.075681910493E-02 1.316710679851E+00 -9.181611227961E-01 -4.840083968424E+00 4.401490231262E+00 7.060727952163E+00 1.365529338463E+01 2.075273022534E+01
 2.060235192459E+00 -7.952434617247E-01 2.394282866879E-01 -3.134581967687E+00 -6.023790920772E-01 1.378252803507E+00 2.649033273463E-01 1.229101857984E+00 1.852409493898E-01 6.524464630027E+00 -4.602319014730E+00 -7.515984417653E+00 -2.252892430814E+01 -1.810705786574E+01 5.518761054870E+01
 2.164194268046E+00 -1.027749198670E+00 2.137489968240E+00 1.610672412726E+00 4.839719400415E-01 1.167927165446E+00 8.150804722107E-01 -1.382350173873E-02 3.527413522088E-01 -1.141807127809E+01 5.260434233175E+00 9.869884546809E+00 -3.321801460562E+00 -3.788481179452E+00 4.278786930011E+00 4.097692637889E+01
 4.320158250178E-01 3.381785163364E-01 -4.258431074698E-01 -7.237634407098E-01 -1.128586637365E+00 3.040440600327E-01 4.493459448210E-01 1.401142681972E+00 1.989658197616E-01 -2.465166028086E+00 -6.137883646301E-01 9.657747253569E-01 -2.626391388585E-01 9.266673437844E-01 -2.754831917005E-02 -9.030226635053E+00 8.496191805396E+00
 -4.000360897903E+00 1.144965118017E+00 -2.912192999005E+00 -2.489032961687E+00 -1.025917275843E+00 6.389648982916E-01 -1.055469087391E+00 8.031561007681E-01 8.633835927685E-01 4.343648830251E+00 -6.985228553939E+00 -1.319858043853E+01 6.583237914588E+00 4.235998778596E+00 -6.459245643812E+00 -3.098500322336E+01 4.932093274337E+00 4.559490252228E+01
 -1.357817922828E+00 -1.242171188219E-01 1.236246224853E+00 -2.325333690539E+00 8.735948041781E-01 -3.252865637657E-01 -8.849286222981E-01 -6.002960804398E-01 -5.074690276845E-01 1.796893830662E+00 -3.643480640641E+00 -3.886970245825E+00 1.615561395601E+00 7.249301669891E-01 9.972967559122E-01 -2.962362403025E+00 1.218446392305E+00 2.690516244965E+00 3.363669874817E+01
 9.385765088208E-01 -3.229738545237E-01 5.821936417083E-01 9.879402397666E-01 7.662851909831E-01 1.062359849026E+00 1.522954075155E+00 4.406522489867E-01 -7.663737977831E-01 3.083464492145E+00 -3.611988913461E+00 -5.746072102533E+00 -7.269358774059E-01 -2.067323440027E+00 8.258716433540E-01 -5.021696479208E-02 2.345604355792E-01 1.563734946629E-01 7.786678704576E-01 1.507489886516E+01
 -2.391779156517E+00 -1.430687855149E+00 -7.594065632922E-01 -7.612055854434E-02 2.553156596252E+00 -2.653051023908E+00 8.167704589217E-01 -1.815969689027E+00 2.542868642878E-01 -4.711200761672E+00 3.746828979595E+00 6.352553243329E+00 1.453851926337E+00 6.126270007635E-01 1.353212720920E-01 5.476705490325E-01 1.061212387114E+00 -1.008524264565E+00 1.094703673472E+00 -6.549893722283E+00 1.775817238064E+01
 2.581743005302E-01 -1.870713721505E+00 1.887734202111E+00 7.922673623004E-01 1.826006722540E-02 -1.692890398351E+00 -6.602731054103E-01 3.665103094297E-01 1.057801658113E+00 2.198170636927E-01 2.187999802479E-01 2.831851341130E-01 -9.087569386525E+00 -2.044700240528E+00 -7.489516645437E+00 9.075368661733E-01 -5.042771380697E-01 -5.718718209002E-01 -1.628956650923E+00 6.460686872412E+00 -1.559727190291E+00 2.332399170931E+01
 -2.075797441690E-01 -8.906928512793E-01 1.958906772659E+00 1.045057002992E+00 1.215129593386E+00 -7.548505086654E-01 -2.561753565348E+00 -2.806266319965E+00 1.723649647951E+00 -7.515927685467E-01 6.118061959914E-01 2.253481379414E+00 1.748558630016E+00 2.357133471799E+00 -1.571472594120E+00 3.569930519883E-02 1.069097043295E-01 -1.863496008000E-01 3.153740842866E+00 -7.916291538100E+00 2.120905768600E+00 8.527198589675E+00 3.254754330706E+01
 1.028899675527E+00 2.547330978864E-01 4.361959718111E-01 -1.439060578448E+00 -9.530596794971E-01 2.410668447530E-01 -5.680054391476E-01 -3.719411545085E-01 -7.082994085638E-01 3.213696728784E+00 -2.984954351353E+00 -5.024627585048E+00 -7.192895767428E+00 -1.538251181228E+00 -8.444244778666E-01 -1.010312643645E+00 8.180258122903E-01 1.429865171649E+00 -1.370799820914E+00 2.191690721067E+00 1.626011360325E+00 -7.638524264621E-01 -8.712287321053E+00 1.563983090444E+01
 -5.980988266144E+00 6.527680694328E+00 7.624218022213E+00 -9.306223609759E+00 -3.914019197512E-01 5.963421635619E+00 -1.940615115477E+00 -2.301100848612E+00 8.250816715167E-01 -3.017362266589E+00 2.939094293829E+00 3.544185297654E+00 -4.369215198739E+00 -1.066537107699E+01 1.151703030826E+01 7.568933325534E+00 -1.141122311326E+00 -9.872251829188E+00 6.913038377080E-01 6.979076851929E-01 5.157769390387E-02 -3.032774483076E-01 2.209423101313E+00 1.409364451796E-01 5.316752513947E+01
 6.747225236041E+00 -5.653266163084E+00 1.955464520995E+00 7.027178128453E-01 -1.461441222618E+00 2.254429483805E+00 -1.654554391114E-01 -4.109818328856E+00 2.408785501168E+00 7.177173396492E+01 -8.095406244309E+01 -1.204850606319E+02 -8.846962420093E+00 -1.481947660700E+01 -7.279854727261E+00 8.012869603954E+00 -5.881999030112E+00 -1.087911700882E+01 -2.671238071422E+00 2.615259803210E+00 -5.409354140036E+00 3.847994804507E+00 3.404976592068E-02 2.703660959581E+00 -3.422011299395E+01 1.841629385860E+02
 6.395938311086E+00 -1.565289450560E-01 1.490182122501E+01 4.482169380911E+00 5.508714550373E-01 -6.292730072357E+00 9.069094743779E-01 1.579243351071E+00 3.300717243222E+00 7.306552865605E+01 -8.515013746406E+01 -1.287765092987E+02 -5.001374265756E+00 -4.561894309249E+00 3.494352950192E-02 1.897348480452E+01 -5.428479941141E+00 -2.719339979769E+01 -7.533328606045E-01 6.392622343013E+00 -2.460999469267E+00 4.639119238130E+00 -1.016998624623E+00 3.380282655994E+00 1.896056351763E+01 9.588262586420E+01 1.996172815272E+02
 -1.004855078848E+00 2.635039465617E+00 -7.477597202452E-01 2.571984433403E-01 -1.694587131579E+00 1.319424250142E+00 1.526952364976E+00 2.521009450122E+00 -1.459381306409E-02 2.416296788841E+00 -9.932566623025E+00 -8.081691742016E+00 -5.457927417105E-01 1.990483766751E+00 -1.325511183447E+00 -1.296914918711E+01 8.083944057230E+00 3.601082233114E+00 -3.355177406366E+00 -7.119077751294E-01 -4.926112741689E+00 -2.132717365088E+00 5.627755814564E-01 -1.441041922222E+00 -8.438324974804E+00 1.568263960663E+00 3.671558208765E+00 2.890309338868E+01
 -1.537119595544E+00 -1.669610142224E+00 -2.697403573524E+00 1.635595786592E+00 -3.678294550569E-01 2.741884383804E-01 3.249172752437E-03 6.424312057479E-01 -4.034002899182E-01 -1.817428976558E+01 4.554759471426E+00 2.241843508516E+01 6.257945465863E+00 2.833605200504E+00 -9.908492802992E+00 1.843929478243E+01 -8.693817658174E+00 -1.332020940012E+01 -2.256403889925E+00 -8.342381057155E-02 -1.072580421417E+00 8.551353865603E-03 -6.490826197538E+00 -1.842062554486E+00 -3.263049609469E+00 1.563365648240E+00 -4.692039319614E+00 -1.253531070844E+01 5.340119771759E+01
 4.180602553048E+00 3.666432536230E-01 5.028009785699E+00 -1.432022219450E+00 4.768528834401E-01 1.940348486869E-01 1.707894622982E-01 4.847633114727E-01 -4.047700521351E-02 8.308931028043E+00 -8.038960799618E+00 -1.210710812711E+01 -2.977952464718E+00 -2.881241064115E+00 1.065949313294E+01 -9.101113532461E+00 1.707906574964E+00 1.107596769666E+01 -5.808419100058E+00 1.901992673131E-01 -8.962010474587E+00 -1.960773833696E+00 -1.070284880347E-01 -1.949235097229E+00 6.899064817608E+00 -1.415397725500E+01 -7.076537346083E+00 2.008513481687E+00 -1.146099594528E+01 5.046211512735E+01
 -3.133152904486E+00 -4.390971763838E-01 -5.667707300810E+00 -1.342996741601E+00 2.592642378580E-01 -6.810168818231E-01 -9.955563533503E-02 2.485207966139E+00 4.749011621162E-01 -9.195903940541E+00 3.311351390500E+00 -1.875913610845E-01 6.572258677431E+00 4.576431673508E+00 -9.225534529439E+00 -2.051607918557E+01 3.182004093403E+00 2.894641551977E+01 -1.233355829600E+00 -3.929441124232E+00 -1.497071156878E+00 -1.543690877398E+00 -8.870721592763E-01 -8.501622056539E-01 -7.655612443547E+00 -1.473734836983E+01 -2.729866952492E+01 2.056195933584E+00 1.372580708524E+00 1.410078634540E+00 4.864645605970E+01
 6.950339395637E-01 -4.131212431053E-01 3.216076760581E+00 -2.178944682718E+00 -1.072458423372E+00 -1.257761538889E+00 5.645387266749E-01 -2.023967610908E+00 1.501285981659E+00 4.888984262884E+00 -2.849579591851E+00 -1.051696643935E+01 -1.660059033323E+00 -2.431860366247E+00 6.793914644124E+00 -8.025420199039E+00 1.347334405044E+00 7.809532148274E+00 -3.731914056297E+00 -3.871893736334E+00 -4.280503450476E-01 -2.702318492248E-01 -2.845310791569E+00 4.511155444604E-01 3.173154005850E+00 -8.347043748901E+00 -2.690263772574E+00 4.047617100567E+00 -2.055159394366E+01 1.797706008827E+01 -5.579521248912E+00 3.326478557212E+01
 -9.278551704574E-02 -3.716981315601E-01 -4.195512325080E+00 4.126165261233E+00 -2.231242614876E+00 6.983840768625E-01 1.209680162238E+00 -1.591439168006E+00 -4.960788991305E-01 -1.926098983717E+01 1.479092169059E+01 1.276842590478E+01 -2.945459347928E+00 1.249810895282E+00 -6.298421379763E+00 3.519246669209E+01 -6.622511372067E+00 -4.767450262599E+01 -3.692862279398E+00 -9.802284748333E-01 -7.821204580660E-01 9.554492796216E-01 -1.876878423586E+00 -1.233023693577E+00 -9.504308253499E-01 2.527189135852E+01 2.561705901573E+01 -5.605567208990E+00 3.562906819774E+01 -3.475923863265E+01 -2.310769005135E+01 -1.536352115794E+01 1.005525162691E+02
 -3.817082094881E+00 8.613778904488E-01 -1.115149576959E+01 -9.802022202356E+00 2.795464727881E+00 1.678105473426E+00 -5.021841993193E+00 -1.161085544481E+01 -6.995171804180E+00 -4.677732957823E+01 5.773487550736E+01 8.534686370002E+01 3.658184776439E+00 6.626431124432E+00 -8.666152432729E+00 -3.415865985583E+00 -1.724985736902E-01 3.963530233570E+00 -1.352331581229E+00 -4.761580888320E+00 2.958267927767E+00 4.425097662316E-01 5.525668637517E-02 -1.985837158641E+00 -1.747954293338E+01 -3.859012160227E+01 -9.777766029091E+01 -4.398986953955E+00 1.010732004705E+01 -1.100253624316E+01 -6.906701013553E+00 4.598435778034E+00 8.337564726942E+00 1.069323882853E+02
 5.368539770045E+00 1.498519872238E+00 1.341957202927E+01 -4.666074022486E-01 -4.242297366752E+00 4.613474430409E+00 -1.178948406676E+01 -1.509321469323E+01 -2.890505359629E+00 6.736674582958E+01 -7.928612128341E+01 -1.193025077235E+02 -5.013968179170E+00 -9.593025811618E+00 1.031316319421E+01 1.223256116704E+00 -2.293249651381E-01 -1.784504923511E-01 1.974120716641E+00 5.004477213028E+00 -6.578011843894E+00 -6.988591134804E-02 2.574326761778E-01 3.738432354307E+00 2.536459216644E+01 6.299689950543E+01 1.278345844512E+02 5.419641436019E+00 -1.786066016684E+01 1.047559093635E+01 -5.035241501889E+00 4.433601352733E+00 -1.290121763930E+01 -7.423188410376E+01 1.699546275437E+02
 2.231143835299E+00 1.817122666738E+00 8.049554654681E+00 -3.004025115406E+00 -2.370268990700E+00 3.654959810660E+00 -7.760467686241E+00 -8.441518213787E+00 -2.975121592015E+00 9.108536464024E+01 -1.053620539399E+02 -1.601956486406E+02 -5.504940258559E+00 -6.074759802592E+00 -4.369948583448E-01 -1.413938197820E+01 -2.603077936346E+00 1.978848105928E+01 2.914151670473E+00 7.742225787115E+00 -7.291819898372E+00 -5.525136552323E-01 -5.171197202094E+00 7.391331669540E+00 -4.305007347787E+01 1.688348911888E+02 7.230370306249E+01 3.806082966255E+00 -1.555785162161E+01 3.493828645783E+00 2.429442608618E+00 -5.972657299107E-01 -1.791748659219E+01 -4.323873854378E+01 7.826781967033E+01 2.533009655448E+02
 8.653219876638E-01 -8.525521717089E-01 4.111998366539E-01 8.474523704538E-01 -4.078168870289E-01 -6.435141510012E-01 -8.403110607287E-01 -2.191099113127E+00 7.072321008334E-01 4.618584634113E+00 -6.171827199583E-01 -3.878788764241E+00 -3.249503588404E+00 3.207641967474E+00 -1.957924989402E+00 -1.944390913049E+00 -1.189172017370E-01 1.345936446180E+00 -1.594492847381E+01 1.310331958909E-01 -1.874997775127E+00 -8.604030729329E+00 -1.196583237814E+01 5.537819354168E+00 -3.596962171813E+00 2.300907467606E+00 1.967269531179E+00 -9.430050559898E-01 2.487815550924E+00 8.032097914214E+00 -3.239066585242E-01 1.894239046746E+00 -2.057332462201E+00 -5.064550098871E+00 -9.832567030747E+00 3.682563632480E+00 5.467423913852E+01
 1.192069356144E+00 9.186964327239E-01 -8.605373890627E-01 -1.432703419873E+00 1.545365520106E+00 -9.224567327976E-01 -6.476064703402E-01 -2.438827303354E+00 -2.122228310992E+00 -1.595690066741E+00 9.026862651965E-01 1.943546773299E+00 -2.411983896723E+00 -2.457568122719E+00 5.855686070252E-01 -3.422449723073E-01 -3.108327071117E-01 1.090786131634E+00 6.093894549562E+00 -1.872377703903E+00 7.935577449159E-01 -1.130334207911E+01 -1.661572643519E+01 5.863212749413E+00 -3.364408145632E-01 -3.706544250284E-01 -1.654551012808E+00 2.372773278256E+00 -1.228447786609E+00 -8.521654136934E+00 4.619718251352E-01 1.206182060208E+00 -1.888197442369E+00 -1.026055419906E+01 -2.080939451780E+01 1.120397435487E+00 8.727946360456E+00 5.968241483066E+01
 -3.397178338138E+00 1.192057653934E+00 -2.926453574160E+00 2.744155350136E+00 -5.178899464704E-01 1.296234393043E+00 -2.005274850186E+00 4.784581388356E-01 -2.299362721389E+00 -1.470563232671E+00 1.092976683055E-01 2.889971585236E+00 -7.896482829576E-01 2.926823428435E+00 -5.791155872705E+00 7.685854143016E-01 -1.611171606529E+00 -4.540257014375E+00 2.387772344115E+00 9.250219459697E-01 -3.030340187260E-01 6.645388104911E+00 9.366024257897E+00 -4.301715281514E+00 4.026100055328E-01 -9.999618509385E-01 -7.806084939870E-01 7.205564426375E+00 -4.099133864119E+00 -1.723998805674E+01 -1.733216581133E+00 -2.719227309763E+00 5.338900788705E+00 1.814722226607E+00 -3.092640275543E+00 1.122559897647E+00 -5.605446349761E+00 1.017945935691E+01 5.183017615573E+01
 -2.087960732159E+00 -3.724431500832E-01 -1.288974683615E+00 -1.343202713621E+00 1.864120047803E+00 -9.176691526264E-01 1.451489221868E+00 5.965029087414E-02 3.097723191302E-01 1.386127301805E+00 2.269178473754E-01 -3.149676508739E+00 -3.896489085977E-01 2.586700047834E-01 3.246291275565E-01 2.578896140583E-01 3.012084123939E-01 -1.098928203810E+00 -6.140535056228E+00 -3.484742919040E+00 7.513291805944E+00 -2.002626730011E-01 6.623270586842E-01 9.490635267084E-02 -6.558151430849E-01 1.954568240656E+00 2.956427010984E+00 -1.424541463626E+00 -1.971185908990E+00 1.548738604046E+00 -5.764851090498E-01 2.081935405736E+00 2.151873107962E+00 4.039383841024E-01 -1.138147720906E+00 4.129877800864E+00 -1.646535964168E+00 5.721001515157E+00 -4.979573054346E+00 2.483699402928E+01
 -6.546822780060E-01 -1.917052935246E+00 2.240235569175E+00 1.003645434358E+00 -2.554822465548E-01 -7.304764070228E-01 -2.353389215755E+00 2.149938648523E+00 -1.924541766994E+00 5.529113357863E+00 -7.083975886752E+00 -9.583614483706E+00 1.094739212001E+00 -1.558901077343E+00 1.009938417927E+00 -2.120929529330E+00 1.816896140909E+00 2.083122893987E+00 -8.937518482475E-01 -2.668171581755E+00 3.658044283559E+00 4.538852005905E-02 2.427857230256E+00 -1.560834817383E+00 -5.113751447188E-01 6.318984160064E+00 8.740620332083E+00 6.368289806285E-02 -1.787283441110E+00 3.112229402054E+00 2.346126849327E-01 -4.074329407232E+00 -1.262871631240E+01 -2.087035127192E+00 9.322206361015E+00 9.671367103704E+00 3.236445740319E+00 -7.704125773968E+00 5.269873351490E+00 -4.761441306259E+00 2.057017720410E+01
 -2.590975808501E-01 4.254254855938E-01 -5.066614731209E-02 -6.525741774584E-01 -7.486516047743E-01 -1.413024127820E+00 -8.285701051158E-01 2.178471343852E+00 1.568130546012E-01 -8.176108954011E-01 2.547830248949E+00 1.545639882878E+00 7.889454425659E-01 1.010668589028E+00 -2.358856534696E+00 -3.696891814964E-01 3.501408101112E-01 -2.644676065676E+00 4.623835517177E+00 8.844560938406E-01 -5.830124954548E+00 -3.100900253524E-01 4.076025417706E-01 -2.463664615673E+00 -5.653187404966E-01 -2.666253209354E+00 -1.320515132074E-02 7.935807222001E-01 8.450446664224E-01 8.408920882205E-01 2.272964973106E+00 -7.604949969484E+00 -5.340400094083E+00 -1.651878555726E-01 -4.391398740397E+00 -5.051389510752E+00 -1.886701586543E+00 8.274009117543E+00 -7.728159057156E+00 -2.282041003534E+00 -1.550397711943E+00 2.701901430404E+01
 4.339990548929E-01 1.340534815538E+00 -2.759485859241E-01 6.444670430768E-01 -2.095104224719E+00 1.007157882097E+00 -1.840102925384E+00 -1.529617267987E-01 -2.884694722250E+00 -3.175145869401E-01 -9.729008097239E-01 -1.644679763030E+00 2.401677554486E-01 5.291684488398E-01 7.867493066379E-01 -7.132799826466E-01 -9.467783489179E-01 -8.577548357425E-01 7.837943174338E-01 -3.041852963908E-01 1.218680270666E+00 -1.264402774755E+00 3.929693488892E-01 9.007272259372E-01 -2.986227648611E-01 -4.463117774092E-01 -1.155679699741E+00 7.619307999106E-01 -1.631203163303E+00 1.054107471778E+00 -3.400379410607E+00 -9.426643813955E-01 1.894347447119E+00 -2.339260407362E+00 -1.380275955451E+00 3.380446077019E-01 2.873864176024E-01 4.805301449028E-01 1.260472395471E+00 -3.083749545303E+00 -1.575533140221E+00 7.062148095052E-01 1.093237714884E+01
 1.313378721185E-01 2.637287140365E-01 -1.429412523643E+00 -2.090960610671E+00 -1.204235577780E+00 -2.292711366672E+00 -5.321477604499E-01 1.502979201977E+00 -1.195140252046E-01 -2.287089726583E+00 1.513938754641E+00 4.133808429424E+00 -7.071498104346E-01 -1.772797282229E+00 -1.497796818035E+00 2.621794190511E+00 -1.160111755062E+00 -1.796204426582E+00 -1.159194241897E+00 9.600526268287E-01 2.287031423383E+00 9.680455263145E-01 -6.125005208118E-01 1.053122046508E+00 -1.572470549385E+00 1.660603558154E+00 -2.547891646764E+00 -1.038035488643E+00 2.153616978864E+00 -4.420115468902E+00 -2.991625683636E+00 -1.379336376013E+00 3.178255309064E+00 2.403748458686E+00 -2.393681167713E+01 1.346419865870E+01 -1.831451502342E-01 4.176314457232E+00 4.301053784133E-01 1.688394664368E+00 -4.295513285550E+00 -6.320962086773E-01 3.602868372287E+00 2.927030123099E+01
 -1.500839280771E-02 8.013102716634E-01 2.233992226556E+00 2.899072016905E-01 -4.688696177948E-01 -1.683395913605E+00 -2.153049647865E+00 4.625032183746E-01 -3.482389957177E+00 3.448488236876E+00 -4.594378044063E+00 -4.728957047590E+00 -9.915365575761E-01 -3.774159239727E-02 4.390160615038E+00 -3.337296880776E-01 1.270040826319E+00 8.130175230574E-01 1.244737685215E+00 -7.785980856293E-01 -1.868004805675E+00 -8.566121524785E-01 -1.098129050104E-01 -9.393839175799E-02 4.004085252102E+00 -3.115770095375E+00 1.807191083049E+00 4.363761875254E-01 -1.772481532318E+00 4.486636963850E+00 1.376971279301E+00 2.002797617250E+00 -7.052371098916E+00 -5.422225086202E+00 1.906809309807E+01 -1.406352981449E+01 3.969540430493E-02 -1.759816692760E+00 6.611987269228E-01 -1.186259275826E+00 1.230417190879E+00 -1.215979183657E+00 -3.960693379306E-01 -1.374258687147E+01 2.369550189183E+01
 1.469100061372E-01 2.276789496507E-01 -1.337255932354E-01 -5.930255324314E+00 -2.505840760424E+00 -5.641320214717E+00 -9.954125013813E-02 3.152760520438E-01 1.334190286336E+00 -4.304068313581E+00 2.446308211271E+00 4.387281920223E+00 -1.153182660534E+00 -1.208906008422E-01 2.334707434544E-01 1.780020445394E+00 5.261558568006E-02 -1.112815815133E+00 -6.857106882227E-01 -3.578657171925E-01 1.477347652713E+00 2.374306749651E-01 -2.010311596618E+00 1.791980790953E+00 1.665449131106E+00 -2.360070302734E+00 -5.157484747608E+00 -3.410985128492E-01 3.432316556185E+00 -2.685629505800E+00 6.032859777846E-01 -1.093064396020E+00 3.284193737153E+00 3.319173559344E-01 -3.316658115535E+00 -1.426329030827E+00 -5.840137451544E-01 -9.978417012345E-02 -1.492771846169E+00 -1.255170599711E+01 7.222987442114E-01 -1.671332523379E+00 -9.671235070225E-01 2.317985600619E+00 5.483061448488E-01 2.377349335646E+01
 -4.691804556494E-01 1.233838850278E+00 -1.661178619946E+00 -2.279092963235E+00 -1.284142624174E+00 -1.105380831186E+00 5.269922161575E-01 1.649251333923E+00 5.099481786324E-01 -6.993927999727E+00 6.481726133791E+00 1.103530919761E+01 9.120740322635E-01 2.201061730759E+00 -2.342183589883E+00 -8.367136786552E-01 1.704125500754E-01 -6.912268040478E-01 5.684261727451E-01 -1.418772833181E+00 -6.388753438053E-01 -1.436440986264E+00 -6.485955387890E-01 6.627126131993E-01 1.520538403949E+00 -1.208933736087E+01 -1.044988430501E+01 1.649264079094E+00 2.356691750503E+00 -1.097259807828E-01 3.408000435451E+00 7.095986640930E-01 6.822990668314E-01 5.114309157610E+00 -9.596231607992E+00 -1.762554061620E+01 1.660871178089E+00 -5.625431887563E-01 -2.752014742919E-01 1.862869435645E+00 -1.449810928703E+00 5.305030743693E-01 1.220892902382E+00 -6.567376467595E+00 -5.252547585770E-01 -4.859910396612E+00 2.094676684974E+01
 6.629694562928E-01 -7.926392402245E-01 -7.692075856050E-01 -3.741248744654E+00 3.664904920195E-01 -7.312562385897E+00 1.951726725492E+00 3.061114401620E+00 -4.970817305071E-01 -2.240359551717E+00 3.218002722754E+00 2.786320649561E+00 2.116929644281E-01 9.326434992103E-01 -1.553468823583E+00 -2.040190707828E+00 5.649577540542E-01 -2.688988913802E-02 3.653290497144E-01 -1.424861102899E+00 2.577142338492E+00 -7.283191554672E-01 1.335761199482E+00 -1.152622550671E+00 -2.820282839815E+00 -5.439285885445E-01 -2.769854330098E+00 -2.238007307771E-01 -1.788015489921E+00 -1.329204224927E+00 4.679798674186E-01 9.557612454753E-01 9.379505585907E-01 5.233856880739E+00 -1.506421665362E+01 -1.627851680855E+01 7.869169581671E-01 3.202774468686E+00 -4.005859817999E+00 -2.241211158232E-01 1.793127589810E-02 2.809953243121E+00 1.722589512010E-01 -2.355031604015E-01 1.026077730832E-01 3.991561598996E+00 9.143184051561E-01 3.107390475199E+01
 -1.364027435056E+01 2.412181323853E+00 -1.685969111999E+01 -1.316931920005E+00 -4.803194800192E+00 1.275942931065E+00 1.541037698669E+00 -2.582322207775E-01 -2.021899125129E+00 2.754654405416E+00 -6.997650706623E+00 -7.705294042820E+00 -1.531438922267E+01 -1.117152963279E+01 2.764387953797E+01 1.584030798178E+00 5.199853092649E-01 -1.500945190614E+00 -2.113880161207E+00 1.113161982252E+00 -4.345962530518E-01 1.026365082158E+00 -6.560819160847E-01 7.044333871662E-01 1.768781078210E-01 7.103648396853E+00 2.250632480861E+00 4.107488283162E-02 -2.472687036517E+00 2.680316598098E+00 -4.382086302732E+00 2.056593417989E+00 2.479856170142E+00 -4.979082141917E+00 7.470607963224E+00 8.398860131575E+00 -1.676639733783E+01 3.760203217424E+00 -5.148661157959E-01 1.890647412987E+00 2.596657315079E+00 -1.731340005198E-01 1.143115012975E+00 -1.551869190516E-01 -1.147385887375E+00 -3.633144870663E-01 -1.147723096318E+00 -1.441393829764E+00 5.598290362161E+01
 2.426379923116E+00 -1.920651706418E+00 -3.615133220526E+00 -6.760109906627E+00 -6.931257139023E+00 -4.158748898261E-01 2.010041312021E+00 1.201693328715E-01 -1.086240486153E+00 -6.147630443064E+01 7.034705263548E+01 1.055632495035E+02 -8.435044142461E+00 -4.271051816122E-01 2.408043159967E+01 -1.189765329319E+01 4.264649574459E+00 1.334271501786E+01 1.665843719022E+00 -3.568472356078E+00 5.918326933615E+00 -3.595588844237E+00 -4.525212499032E-01 -2.991728960276E+00 1.276678662378E+01 -1.260660247007E+02 -1.215613213849E+02 -4.375439684576E+00 -5.697412658344E+00 1.623326189427E+01 1.362608084781E+01 1.076042789299E+01 -2.453280250528E+01 5.341326748377E+01 -7.143210998995E+01 -1.169055900080E+02 7.361069547882E+00 -4.218112052967E+00 -1.606879583776E+00 -3.981727902298E+00 -6.798114015684E+00 -8.271992608268E-01 2.902391630925E+00 1.058086185451E+00 2.023708288026E+00 4.564014020689E+00 -4.912099592569E-01 5.820745793419E+00 1.230829355084E+00 1.403849865512E+02
 -1.584650347410E+01 4.532088172972E-01 -2.748330611649E+01 4.574427993654E+00 3.620348135582E-01 -9.168425594571E-01 5.904586391823E-01 -1.452756194435E+00 -3.054422982559E+00 -8.438649139999E+01 9.311186339518E+01 1.420801679579E+02 2.826022884761E+01 1.811952832359E+01 -4.145519037297E+01 -1.782230157511E+01 4.816179425102E+00 2.667712039617E+01 -1.309400681370E+00 -5.630128559057E+00 5.424652439466E+00 -2.280597346902E+00 7.194595596774E-01 -5.195632708047E+00 -1.281868486443E+00 -1.344292941509E+02 -1.431250878355E+02 -7.156004655463E-01 8.468014669323E+00 6.765338897224E-01 3.027662305635E+01 1.373063912456E+00 -2.231663265738E+01 7.685479029957E+01 -9.873872344421E+01 -1.419609234246E+02 -2.531832361266E+00 -3.151502093831E+00 5.813893130753E+00 -2.764624031329E+00 -7.903308375779E+00 1.236506879298E+00 2.370159891450E-01 3.285077867455E+00 -4.781091880046E+00 8.535813637603E-01 2.038331444524E+01 -4.712468033355E+00 -8.208634699043E+00 1.019187618069E+02 2.164770845278E+02
 2.420889398816E-01 -5.135259924326E-01 7.939721612708E-01 -5.209431590483E-02 -2.152454331603E-01 -5.662614356329E-01 -1.145438057499E+00 -1.072661647143E-01 -1.153708665994E-01 -6.924142555780E-01 9.981376633236E-01 -4.059491837415E-01 3.229819534019E-01 3.809192341084E-01 -3.032998033584E-01 -4.042841855772E-01 1.125823196334E+00 2.070066443297E+00 1.461066356696E+00 -1.387516359588E+00 3.394436350123E-01 -1.782911814629E+00 6.472179807184E-01 3.208568002176E+00 -2.275272051354E-01 -1.972308511229E+00 -1.125399224954E+00 -4.090938618211E-01 9.658025358328E-02 -1.324793666022E+00 2.431709404045E+00 -5.187118371171E-01 -1.918479055061E+00 -4.143415834974E-01 -1.912784010841E+00 -3.390621473955E-01 -1.784448750678E+00 -3.800401581994E-01 -1.240731616292E+00 -1.266426581453E-01 4.315536828446E-01 7.958062111655E-01 -1.002801645293E+00 -1.017168743919E+00 1.113308634275E+00 -1.558492461788E+00 -4.212484369254E-01 -3.845757766042E-01 -7.264351098646E+00 -1.444836260071E+00 -4.499271668156E+00 1.240699524017E+01
 7.333445753481E-01 -5.119245263270E-01 4.547651064881E-01 -4.153135197593E-02 2.907101863140E-01 -5.649960305947E-01 1.761771120140E+00 -1.321536192033E-01 -2.739465767870E-01 -9.538662190862E-01 3.540029262520E-01 -1.135537175295E+00 -9.034096964314E-01 -1.029129459205E+00 1.896358321438E+00 1.056138980213E+00 -1.084482040291E+00 -5.360393956293E-01 -1.971169287074E+00 2.305503384158E+00 1.171732242861E+00 6.337447465494E-01 -2.791305017743E-01 3.218414121072E+00 -7.967317059158E-01 4.010230031894E-01 -1.070577070750E+00 -6.266476624434E-01 -3.074762712749E+00 -1.330808473082E+00 6.818414008976E-01 -1.861434707996E+00 1.862067241863E-01 -1.995956922552E+00 -1.388572444441E+00 -2.088984496313E-01 -4.838857402702E+00 -9.843049548727E+00 -1.595501526876E+01 -9.719740159000E-01 -3.013299164972E+00 9.667947339751E-01 -2.143683943410E-02 -1.630938765997E+00 4.643968480615E-02 2.645902335752E+00 -1.641327353845E+00 -5.413370221629E-01 -6.015819526700E-01 1.067618837415E+00 -1.704794217560E+00 6.210419897284E+00 2.107134650820E+01
 -1.412810849477E-01 -1.104596098452E+00 -3.699858179578E-02 -5.776369672148E-01 -4.975695666599E-03 -8.679137857528E-01 1.232598296079E+00 -2.616531966193E-02 1.763205996309E+00 -3.553448796042E+00 2.343294604422E+00 3.397202149033E+00 1.148858033953E+00 9.701679451812E-02 5.032912435346E-01 2.512685107526E+00 -2.707091867198E-01 -1.223434121366E+00 9.995141372297E-02 9.231410579478E-01 -2.209043967625E+00 3.298087033569E+00 -3.789154594644E-01 -7.177400768564E+00 -1.392548468062E+00 6.508227811298E-01 -2.474067547169E+00 2.394970519327E-01 9.799157582862E-01 -3.453713214363E+00 2.593282491877E+00 -9.026016795912E-01 2.152551843026E+00 2.173037161178E-01 -4.593057991739E+00 -2.933953204967E+00 -2.074192738638E+00 -1.217236857336E+01 -1.903634076928E+01 -1.137649099508E+00 -1.151889945526E+00 5.013259905397E-01 -2.360949412641E+00 8.822334033997E-01 7.793512895302E-01 1.419495038432E+00 7.060473427019E-01 1.198568654924E-01 -5.426080972775E+00 -1.358430537651E+00 -3.384360650751E+00 3.902029356620E+00 1.538123874543E+01 3.358044123417E+01

