#BIOSYM hessian 1
@Type: Hessian Update
@Units
 distance: 	A
 energy: 	Kcal/Mol
#header
@natom 19

#label
L1      L2      L3      L4      L5      L6      L7      L8      L9      L10     L11     L12     L13     L14     L15     L16     L17     L18     L19

#element
Li Li Li Li Li Li Li Li Li Li Li Li Li Li Li Li Li Li Li

#matrix
57
 5.976177663386E+01
 3.646895996718E+00 3.470025710243E+01
 -1.955984964683E+01 4.837498580082E+00 7.556268944574E+00
 -5.841242576630E+00 1.305945899481E+01 4.730604001687E+00 2.329612573043E+01
 1.407891374003E+01 -3.078324159881E+01 -9.096821134499E+00 4.074395439754E+00 5.607839262943E+01
 4.912139058170E+00 -9.882365198106E+00 -3.402232638389E+00 -7.691653409349E+00 8.002143326629E+00 4.135858409129E+00
 -2.154733877913E+00 -1.961982666710E+00 1.831946038354E-01 -1.614120994429E+01 -1.360877812880E+01 3.400689288660E+00 1.919503330830E+01
 -1.355930508496E+00 -1.003910497833E+00 1.896359352207E-01 -1.487657067482E+01 -1.279563625575E+01 3.049690945881E+00 1.990343144857E+01 2.940414684437E+01
 2.068117127409E-01 2.561383366301E-01 7.170434146061E-02 3.227417026621E+00 3.175600183163E+00 -6.323866467640E-01 -3.279398710546E+00 -1.555639761884E+00 9.832273966955E-01
 -5.095811233300E-01 -2.910584049589E-01 3.073782467870E-01 4.856186621493E-01 1.857870746871E+00 6.579128834719E-02 -2.454196974073E+00 -5.698493901205E+00 -1.202400482871E-01 8.941040560273E+00
 2.150353182974E+00 1.125219351734E+00 -1.299352450385E+00 -1.841510616947E+00 -8.080843232569E+00 -4.724487019158E-01 -6.334847186673E+00 -1.555281829027E+01 -1.163897299549E+00 -4.040251665858E-01 2.483762453837E+01
 8.257479572412E-01 5.609351049794E-01 -4.348922394256E-01 -6.640754541405E-01 -2.820047899286E+00 -1.528302459941E-01 -2.972818951237E-01 -9.892424832575E-01 -2.302909746110E-01 -3.397171691246E+00 5.374329384997E+00 2.402011538924E+00
 1.681624802421E+00 1.067459878538E+00 -1.239949644178E+00 -1.926436050354E+00 -8.360928495477E+00 -4.543488248092E-01 -4.360834307761E-01 -7.510335815646E-01 -4.249356156683E-01 -7.577625189028E+00 1.104174057875E+01 5.275407489828E+00 1.656944931461E+01
 -1.289978022922E+00 -1.151234924650E+00 -4.022675805445E-01 -9.064832404208E-01 -3.452600064754E+00 -8.474387752434E-02 -3.935540129417E-01 -2.022899503232E-01 -1.511684970267E-01 4.210690897936E+00 -1.408569753288E+00 -1.570291913590E+00 8.142000974744E+00 3.152972621085E+01
 -4.838990433742E-01 -1.605866690597E-01 2.268076594755E-01 2.763749594027E-01 1.069521628067E+00 4.639703725433E-02 1.476943400412E-01 2.403614710400E-01 5.229120804301E-02 3.393213186723E+00 -3.518933435639E+00 -1.965368559450E+00 -3.320983570258E+00 4.478901470859E+00 2.062723319649E+00
 -5.144080872226E-01 -6.867559294934E-01 7.922113416156E-02 8.448927877550E-02 8.416100537660E-01 6.309202212448E-02 -9.902806761505E-01 6.414028174507E-01 5.806210546264E-01 9.354997500774E-02 -3.518175407264E-01 -1.341971581875E-01 -4.529690237059E+00 -1.073901631261E+01 -7.456793126001E-01 1.428406473170E+01
 7.106892113221E-01 5.710658974249E-01 2.855979877352E-01 7.890921956687E-01 2.648841427350E+00 1.275460350061E-02 7.140976316136E-01 -6.422263210994E-01 -1.800832579833E-01 4.554127430920E-01 -1.680303024315E+00 -6.676457113074E-01 -1.199028561934E+01 -2.737688343996E+01 -2.095763033421E+00 1.989819546855E+01 3.897002688450E+01
 -1.396974901164E-01 -1.897404073899E-01 2.270466819134E-01 4.365184621972E-01 1.951397431305E+00 1.234949579864E-01 4.935547600863E-01 -3.279707045134E-01 -1.729050701361E-01 3.018229247371E-01 -1.298244867166E+00 -4.441034452798E-01 -2.131915642724E+00 -2.936314128886E+00 -9.290895307436E-02 -1.469738887110E+00 1.177208508168E+00 1.264640120282E+00
 2.238400259222E-01 4.928764896471E-01 3.255479237192E-02 -6.393414551504E-02 -5.271576598767E-01 -5.929547163369E-02 1.789359004267E-01 1.522578197753E-01 -5.261049017413E-02 -3.167242934899E-02 8.933417577451E-02 3.083806587565E-02 2.287453737633E-01 3.231357406549E-01 -3.421638174383E-02 -9.341945542350E+00 -1.027312489328E+01 1.824747179822E+00 1.942785885063E+01
 8.883564405408E-01 7.318105170768E-01 -9.330787343469E-03 1.197177707662E-01 4.986369561246E-01 1.458940913062E-02 1.830876840300E-01 2.093746592947E-02 -2.488557719292E-02 1.033783743584E-01 -3.161409386908E-01 -1.500974793718E-01 -4.969307979897E-01 -8.670688914638E-02 4.962241186183E-02 -9.875724485129E+00 -1.117092481013E+01 2.032204529646E+00 1.586277840469E+01 1.477330761265E+01
 4.071197466304E-01 6.886401446926E-01 -1.480080739904E-01 -2.383643889318E-01 -1.759867342490E+00 -1.827842399412E-01 3.357834135349E-02 -7.515646558370E-02 -8.209921779108E-02 -2.605836907629E-01 1.067304470409E+00 3.576132982052E-01 1.231424956465E+00 9.924638363073E-01 -8.982889330833E-02 1.977957184042E+00 1.476538501707E+00 -7.730393263600E-01 -4.460451321337E+00 -3.807160036500E+00 1.468898057005E+00
 -3.372924343064E-01 -7.490712790193E-01 8.823140644705E-02 4.113826198255E-01 1.691461171591E+00 1.168737072371E-01 -3.285628005032E-01 -1.963851745763E-01 1.268004581950E-01 1.981356096818E-01 -7.879261444905E-01 -2.710238172797E-01 -9.999345567978E-01 -9.269075538166E-01 5.655463348810E-02 1.919703056126E-02 5.188583858699E-01 2.818758776214E-01 -1.013971456838E+01 -5.556571164363E+00 2.319328208322E+00 2.263425549389E+01
 1.072875042460E+00 1.148548400692E+00 -3.672251828868E-01 -7.248006191940E-01 -3.214501350868E+00 -2.207580162198E-01 2.541304188999E-01 9.868083560980E-03 -2.083710206118E-01 -4.673873941921E-01 2.039510100486E+00 6.636805781228E-01 2.078223825979E+00 1.187337843675E+00 -2.858166314080E-01 -9.063276593024E-02 -7.655119637358E-01 -4.616832978911E-01 -5.876266365679E+00 -3.912805089143E+00 1.845123045514E+00 1.227821662977E+01 7.931141453735E+00
 6.034087829186E-02 -5.195614345890E-01 1.337810225920E-02 8.301219367013E-02 1.543084035792E+00 2.052683659547E-01 2.292518373245E-02 4.883406701450E-02 5.050141818358E-02 2.343805662670E-01 -7.956179773588E-01 -2.911392343146E-01 -1.153974003434E+00 -1.057021839519E+00 7.444489620331E-02 -2.120848020649E-01 3.150859893982E-01 3.730553497395E-01 2.605183223673E+00 1.990452560968E+00 -1.245853639983E+00 -5.414587957532E+00 -3.577024155137E+00 2.415422862115E+00
 -3.918709336681E-01 -2.037843650228E-01 2.811962613586E-02 -1.421083815073E-01 -2.981297202544E-01 7.467755400607E-02 -2.697315648489E-02 5.579601250746E-02 -7.604794013589E-02 -3.908766237220E-02 1.549616148650E-01 8.842600674232E-02 2.628677389787E-01 2.492939468697E-01 6.022442421836E-03 -3.069409115526E-04 -1.615663004537E-01 -7.175136558017E-02 1.147412647724E-02 -9.291877977618E-02 -2.509403388708E-02 -1.234787355615E+01 -6.554099771719E+00 3.329574956345E+00 2.792223779155E+01
 -2.011067009438E-01 1.335655554815E-01 5.077311906395E-01 8.007396475526E-01 3.485771309167E+00 1.764356336461E-01 3.214301755911E-01 3.859811437328E-01 1.579119235096E-01 6.448287824810E-01 -2.776718750238E+00 -9.456099571956E-01 -2.739102170487E+00 -9.527007571391E-01 4.172888640449E-01 2.580434484610E-01 6.806170260516E-01 5.897824839308E-01 -1.398140546586E-01 1.218969884273E-01 -6.725385036546E-01 -6.103353703147E+00 -4.797349108271E+00 2.392179402964E+00 5.113714809018E-01 7.823335441772E+00
 4.562901135472E-01 7.309791882161E-01 -7.142743797287E-02 -3.674791711606E-02 -1.072896119042E+00 -1.818410336789E-01 7.470946152857E-02 -4.419839809677E-02 -3.052628926745E-02 -1.513581685801E-01 5.577861721746E-01 1.790665492637E-01 7.541959045818E-01 7.695433675210E-01 -5.126809271712E-02 1.585775376230E-01 -2.603998020801E-01 -2.460382323748E-01 -2.862454527688E-02 -3.482250944821E-01 3.279575195197E-01 3.028565298236E+00 1.897915848115E+00 -1.395249199075E+00 -9.589095877910E+00 3.214653490555E-01 3.722509047600E+00
 1.324105773712E+00 1.509667839410E+00 -1.456834817185E-01 -2.745119085998E-01 -1.417852085628E+00 -1.869423147977E-01 4.742272019855E-01 1.943051627262E-01 -8.378466405398E-02 -1.315231446007E-01 5.928490924379E-01 1.477655279492E-01 6.166833026246E-01 6.648262115900E-01 -7.348375276357E-02 7.438211899378E-02 -4.366088783496E-01 -1.694140911301E-01 -8.036187675728E-02 -2.458844206348E-01 1.153074986547E-03 2.632961233116E-02 4.757600274380E-02 -8.960176605655E-03 -1.552872630021E+01 5.524940421438E+00 6.173677726586E+00 2.166505372274E+01
 1.702805199781E-01 2.618248961267E-01 -1.929969514932E-04 -1.415098552070E-02 -1.723370578482E-01 -1.616394453764E-02 1.181530163022E-01 8.783944100393E-02 -4.471355198270E-02 7.711251403905E-03 -3.599164077041E-02 -6.199643866963E-03 2.966382152868E-02 1.930530325068E-01 2.680403678528E-02 1.168917156673E-02 -9.782845114553E-02 -1.794883968329E-02 -2.053583249419E-02 -7.492413398145E-02 -2.462764377359E-04 -1.622465793210E-02 8.568874760048E-03 -8.954682472114E-03 6.202603739396E+00 -2.602102086602E+00 -2.545566956155E+00 -1.223878444661E+01 9.705677087964E+00
 -6.333026531838E-01 -6.371004210111E-01 1.297649702624E-01 1.444515574708E-01 8.816077981960E-01 1.043002894216E-01 -1.177781957177E-01 5.050551985024E-03 4.130611117544E-02 1.241910103148E-01 -5.242284395943E-01 -1.579742108593E-01 -5.676877378608E-01 -4.552313430277E-01 6.628380816731E-02 -4.085664671920E-02 2.677346002239E-01 1.520369898887E-01 3.667484740046E-02 1.529140073421E-01 -6.747485029016E-02 3.974282322245E-02 -1.097496428345E-01 7.148470531481E-02 6.285943527526E+00 -2.118701561162E+00 -2.560744638132E+00 -9.446056398406E+00 5.901675454191E+00 4.262504810707E+00
 -2.786970322806E-01 -2.803240575529E-01 7.064869083382E-02 4.102146861519E-02 5.116975618112E-01 5.504933606992E-02 -7.932964581128E-03 3.308515633826E-02 3.086190887795E-02 7.277175752208E-02 -3.114067659914E-01 -1.017348281884E-01 -3.237016096208E-01 -1.966861653755E-01 4.362354190488E-02 -1.965679717858E-03 1.181911020355E-01 7.444425123943E-02 1.586882700356E-02 5.214011796349E-02 -3.279814568864E-02 1.919678240045E-02 -7.733700623767E-02 1.052413491476E-02 -8.220862453176E-02 2.194998227684E-01 6.037202242779E-02 -5.976109387779E+00 6.349826508127E+00 3.161895346328E+00 1.522799361283E+01
 1.138815657055E-01 -2.912853784196E-03 -2.948722905367E-01 -4.958796881434E-01 -2.167614081325E+00 -1.118075487902E-01 -1.659993522594E-01 -1.531650096869E-01 -8.552258203917E-02 -3.946531464118E-01 1.594210763388E+00 5.571302648213E-01 1.667126698258E+00 6.670192305870E-01 -2.340811380134E-01 -1.594601297319E-01 -4.951564728268E-01 -3.739818277505E-01 5.964513231967E-02 -6.427956769804E-02 3.513682449720E-01 -3.217248130311E-01 6.005313963680E-01 -2.813986247285E-01 9.619498347333E-02 -6.482387833374E-01 2.325629304361E-01 6.504739325817E+00 -6.781406839248E+00 -3.564871022302E+00 -6.159990782355E+00 7.198939151109E+00
 -2.137042545606E-01 -1.923040356479E-01 4.578632286020E-02 8.102118538589E-02 2.671553312006E-01 1.845219128425E-02 -7.221979743765E-02 -2.553206893239E-02 2.638261952091E-02 3.396969099120E-02 -1.523713697339E-01 -4.678082729446E-02 -1.758069082849E-01 -1.824900283963E-01 1.286248504086E-02 -1.180680246517E-02 1.092895728391E-01 4.907430928286E-02 1.216013250679E-02 6.272013160778E-02 -2.319494062178E-02 1.287601305747E-02 -2.481420807165E-02 3.433685467965E-02 -1.819330957375E-02 1.003693439765E-01 -1.188973866188E-02 3.239605584003E+00 -3.394134775202E+00 -1.701253125456E+00 -6.654826024848E+00 3.207593369646E+00 3.001080209735E+00
 4.995189085849E-02 2.224434330063E-01 1.528654660857E-01 2.613645932471E-01 8.673377256839E-01 1.637042694717E-02 1.466494764626E-01 1.489833235539E-01 3.040324478647E-02 1.883838537257E-01 -8.154267215403E-01 -2.778425849594E-01 -7.811296330828E-01 -2.070549180455E-01 1.279152796665E-01 8.408241614314E-02 1.798094019630E-01 1.641957692683E-01 -5.078344647646E-02 -4.071912384832E-03 -1.779420177886E-01 1.493517446471E-01 -3.077606697820E-01 1.564375477938E-01 1.334251857977E-02 3.069844078382E-01 -1.552584502114E-01 -1.817740483753E-01 -5.377077178199E-02 1.284803752467E-01 -9.101507071432E+00 -4.265252728162E-01 3.480342396471E+00 1.136951308959E+01
 -3.212966602926E-01 -4.841340739273E-02 2.428299900129E-01 3.286354330721E-01 1.253158579558E+00 5.594098638100E-02 1.263695677584E-01 2.085116244355E-01 5.754747800087E-02 2.527632480695E-01 -1.137875017279E+00 -3.712715341792E-01 -1.063200820935E+00 -3.535348391317E-01 1.784001044636E-01 7.110256033281E-02 2.711934738862E-01 2.238775755187E-01 -3.799881206473E-02 4.460315259704E-02 -2.026125578549E-01 1.429188242111E-01 -3.672055105147E-01 1.772277629943E-01 1.034746681230E-02 4.632700810888E-01 -1.481037509244E-01 -9.551896730390E-02 -1.479845023505E-02 1.044216872427E-01 -2.977861733805E-01 -3.002140599334E-01 1.651081055209E-01 -2.051226720981E+00 3.544854398999E+00
 -7.235731228603E-02 -1.052035017121E-01 -7.700020482442E-03 2.868743875015E-03 2.572169283040E-02 7.151099464039E-03 -4.455356195889E-02 -2.175615112242E-02 6.903639751232E-03 -7.491452871194E-03 1.515480990491E-02 1.044303124592E-02 3.160852790480E-02 6.275967499722E-03 -9.579093946813E-04 -3.094863664919E-03 1.730863698804E-03 -1.065138669830E-02 5.090683393626E-03 2.473977065044E-03 1.819476641423E-02 -2.257390423325E-02 2.212608152498E-02 -1.717918856112E-02 -4.051373506564E-02 8.783680953651E-03 4.005435608157E-02 6.653955320769E-02 -1.869888452009E-03 -3.583528416353E-02 3.430912838636E+00 9.816451623653E-02 -1.299817676935E+00 -4.901384440695E+00 1.688555939394E+00 2.319554784728E+00
 -2.757782399958E+00 -2.542162081788E+00 1.072794170438E+00 1.754825158506E+00 7.822502977850E+00 5.240996917302E-01 -3.763627023083E-01 1.994133521411E-01 4.765776661185E-01 1.213542667187E+00 -5.249367927000E+00 -1.725060348581E+00 -5.359811667643E+00 -2.937530112235E+00 7.216835825252E-01 2.705356136634E-01 2.037184249947E+00 1.225525893417E+00 -2.749203557272E-02 6.502042144393E-01 -8.970078912609E-01 6.700481549205E-01 -1.549148567231E+00 8.133941280656E-01 -3.083966450844E-01 2.511938993757E+00 -4.129743010635E-01 -1.347482010332E-01 3.921903485518E-02 3.202877088096E-01 2.129139251297E-01 -1.522348076842E+00 9.545714924092E-02 -1.333718699351E+00 3.444696538382E+00 1.398075826537E+00 9.373741712506E+00
 6.858891198391E-01 5.053530640121E-01 -3.130076769468E-01 -4.637658380129E-01 -2.008915162800E+00 -1.259194591933E-01 3.138823742920E-03 -1.488520736204E-01 -1.133798010509E-01 -3.405876417541E-01 1.502517627319E+00 4.899205579561E-01 1.475442301605E+00 6.909884869411E-01 -2.193696934677E-01 -7.792190333771E-02 -4.903455116587E-01 -3.261267424732E-01 1.944988505884E-02 -1.382646433512E-01 2.519860744471E-01 -1.785337864503E-01 4.507969939653E-01 -2.215247142183E-01 6.327050509235E-02 -6.863272217159E-01 1.327596266692E-01 8.228187633822E-02 -9.042591224136E-03 -1.163318870731E-01 -6.725254349280E-02 4.078510735151E-01 -3.003849443814E-02 2.344296241121E+00 -3.381396962612E+00 -1.768281351213E+00 -2.610486696420E+00 3.835541899435E+00
 1.347070067690E+00 1.215253739052E+00 -5.324236241511E-01 -8.712539281085E-01 -3.835114240527E+00 -2.524341657783E-01 1.712221124051E-01 -1.172583287672E-01 -2.334595869643E-01 -6.005615524481E-01 2.612169629957E+00 8.561386283909E-01 2.645724224026E+00 1.418776439003E+00 -3.626789254793E-01 -1.359423278851E-01 -9.904919088499E-01 -6.007351036350E-01 1.719612246685E-02 -3.100542193060E-01 4.419248755319E-01 -3.256138382898E-01 7.695481785751E-01 -3.995267087799E-01 1.473502849127E-01 -1.240180265615E+00 2.053659898724E-01 7.240879932996E-02 -1.384749070773E-02 -1.608815888568E-01 -1.066990549947E-01 7.432793323562E-01 -4.752581360046E-02 1.097804907275E+00 -2.239797341845E+00 -9.980703281572E-01 -4.529705915879E+00 2.014325799666E+00 2.374061927972E+00
 1.229080099674E+00 1.384582999479E+00 -3.515842011248E-01 -6.311378882115E-01 -3.054694757840E+00 -2.491251255033E-01 3.373144671520E-01 1.046239763087E-01 -1.980722042373E-01 -4.145188565735E-01 1.733502583972E+00 5.728694266807E-01 1.886920982921E+00 1.288466399812E+00 -2.135030997417E-01 -7.125545976564E-02 -8.579372192202E-01 -4.574404563735E-01 -2.237211835305E-02 -3.260381476136E-01 3.054944481540E-01 -2.405509222911E-01 4.846007716392E-01 -2.994595239076E-01 1.897052771772E-01 -9.319816922630E-01 1.340287780259E-01 -6.658874106556E-02 -3.327376915060E-03 -1.058013356480E-01 -4.918055324920E-02 5.579425695373E-01 -3.579039996181E-02 -3.553525230425E-01 -3.446872645909E-01 6.175318663075E-02 -4.496208728783E+00 -7.314640511386E-01 1.679776107717E+00 8.707268160961E+00
 -7.511247045505E-01 -8.166651138798E-01 2.283987009783E-01 3.943577546471E-01 1.913574286796E+00 1.440619819038E-01 -1.844131989875E-01 -4.375717683035E-02 1.260539866120E-01 2.666732589124E-01 -1.121806709220E+00 -3.716074940376E-01 -1.206146566504E+00 -7.878411084011E-01 1.421927206587E-01 4.964698772502E-02 5.281535519608E-01 2.869932392488E-01 1.417673429081E-02 1.924591600153E-01 -1.869653512872E-01 1.462201970019E-01 -3.157832125754E-01 1.683324294038E-01 -9.810263593002E-02 5.770161854399E-01 -5.535316206803E-02 2.695682007010E-02 1.276698155144E-02 3.761429996649E-02 5.709693721328E-02 -3.616584930486E-01 1.679977517156E-03 1.152767606575E-01 2.111820195755E-02 -3.052648560774E-02 -2.255879292102E-01 -6.301321657361E-01 -7.724757975477E-02 1.923989444218E+00 9.990155920294E-01
 1.239415831430E-01 1.838884189177E-01 -4.145154156986E-02 -6.798445803396E-02 -4.661352136436E-01 -4.235404171002E-02 4.147394544150E-02 4.521725232416E-02 -2.526903774476E-02 -6.159060564469E-02 1.992958530626E-01 7.645350642632E-02 2.848789600906E-01 2.434729159805E-01 -1.781684198699E-02 -9.767497561106E-03 -1.462651800009E-01 -7.864226294860E-02 -1.292821581680E-02 -5.879613318751E-02 4.972476012104E-02 -5.708689022717E-02 7.167908383693E-02 -3.612372418038E-02 -3.211112674861E-04 -1.105908326848E-01 2.371952407893E-02 3.096065541065E-02 -3.388142144389E-02 -2.052163258880E-02 -7.139568013873E-03 1.142922573307E-01 -4.333670245346E-03 -5.819037241131E-02 -6.336761029797E-02 6.332446301412E-03 8.153065769444E-01 4.040942720895E-01 -2.359977107786E-01 -2.788417459344E+00 -7.549665598624E-01 1.036677664766E+00
 7.586193228817E-01 1.116501836482E+00 1.620799098042E-01 1.502138328015E-01 5.684156898540E-01 -2.635830983976E-02 5.432721814283E-01 3.502170063118E-01 -5.329773936982E-02 2.248098116484E-01 -8.664849470665E-01 -3.256185528919E-01 -8.409336133134E-01 8.800166556218E-02 1.606140295489E-01 1.489003771099E-01 -2.711459104382E-03 1.674575703317E-01 -1.088021269412E-01 -1.537260245222E-01 -2.790949059065E-01 2.760087724248E-01 -4.640241491684E-01 2.198717865187E-01 1.446258369802E-02 2.329501686084E-01 -2.066845891703E-01 -3.537785388362E-01 2.462613884421E-02 1.543019349685E-01 1.641520165080E-02 -2.934551711804E-01 6.287406837351E-02 7.688306941410E-02 2.077159684845E-01 2.570656453363E-02 1.054485973357E+00 -2.544614453321E-01 -5.207536200173E-01 -5.502412050723E+00 -7.617493920520E-01 1.844246215073E+00 2.574125155454E+01
 -1.247674433411E-01 -1.871665121034E-01 -2.882067680655E-02 -3.625200445134E-02 3.629133790929E-02 4.212875985435E-02 -2.061598833752E-01 -2.100772852437E-01 1.505750878513E-02 -5.656151300272E-02 3.196793792700E-01 9.995099318900E-02 2.038296493523E-01 -1.276937089803E-01 -6.681861305620E-02 -1.911099185519E-02 6.446063123431E-02 -2.432253079800E-02 3.763559051745E-02 5.488023045764E-02 5.910059377612E-02 -2.852932960687E-02 1.196077841177E-01 -5.676943660641E-02 -5.723707482250E-02 -6.527484556147E-02 4.243078222822E-02 9.948118054753E-02 -2.113704015665E-02 -2.190644094015E-02 -3.189438513484E-03 6.533043571265E-02 6.054115115944E-03 -1.732679685207E-02 -5.272824645914E-02 -2.073085705188E-02 -2.467769206187E-01 6.780202082834E-02 1.278832400122E-01 -9.591396210082E-01 -3.404119724888E-01 3.558459362305E-01 -1.545720945130E+00 8.510519372276E-01
 -1.169535386920E+00 -1.343791707564E+00 2.112557424345E-01 3.821028255694E-01 1.973593155637E+00 1.874381366872E-01 -4.401976259095E-01 -2.332503832468E-01 1.610275266266E-01 2.152562761475E-01 -8.722675270437E-01 -2.833232164724E-01 -1.055211244288E+00 -1.025200187789E+00 8.026638544641E-02 -9.539836296726E-03 6.427675401324E-01 2.791930761766E-01 7.159237157116E-02 3.077420143955E-01 -1.136040219882E-01 8.392419337637E-02 -1.709715921530E-01 1.138815808710E-01 -9.632724694868E-02 5.558711699241E-01 -1.846473914122E-02 1.325180784437E-01 3.542930023983E-02 2.213574847077E-02 3.036373478854E-02 -3.271947796581E-01 1.893673061998E-03 2.049631327073E-01 1.479185376234E-01 -4.849118628558E-02 5.844009795610E-01 -1.794295869792E-01 -2.830142714663E-01 1.668982135762E+00 4.677051304980E-01 -7.441244802985E-01 -9.634739387471E+00 6.494828971739E-01 3.893986669222E+00
 -5.212914979252E+01 -1.596593516714E+01 1.432442245723E+01 -1.354016480349E+00 -4.650283080912E+00 -5.291698775585E-01 1.975317919526E+00 1.018042574663E+00 -3.797619611828E-01 -2.487836343935E-01 1.195661730702E+00 2.457089881760E-01 1.476125605090E+00 2.547601063548E+00 -6.774228681377E-02 4.100081708661E-01 -1.635673582281E+00 -5.124204528090E-01 -2.161679294006E-01 -1.097163266535E+00 8.354012866783E-02 1.080264453800E-02 -1.163943599143E-01 -4.407440799457E-01 4.278886697886E-01 -1.226246322017E+00 -2.685891522666E-01 -1.163285097306E+00 -3.370762341888E-01 4.830947638174E-01 2.144667186425E-01 9.244794768616E-01 1.672105091115E-01 -5.221270081355E-01 -3.682635450212E-01 6.296101403366E-02 2.787731372069E-01 4.320739646214E-02 -1.045711078128E-01 -5.093125531745E-01 2.420047591549E-01 -8.493284626937E-02 -2.219788492478E+01 2.955781208136E+00 9.045436607465E+00 7.356645810932E+01
 -2.103027547668E+01 -6.620888533847E+00 5.990549175667E+00 4.228597146446E-01 -6.522192943544E-02 -3.330202472861E-01 1.048885084710E+00 7.258580029869E-01 -6.745328146876E-02 3.073992737255E-01 -1.308673342544E+00 -5.025302763797E-01 -1.120716803039E+00 4.691580749419E-01 2.498698219540E-01 3.074989291334E-01 -2.201764527855E-01 1.578701122642E-01 -1.767337251672E-01 -3.930928828485E-01 -3.411272358563E-01 3.022875300267E-01 -6.801521324769E-01 1.745691835991E-01 1.759376733175E-01 2.049773375769E-01 -3.322801658995E-01 -7.371727209162E-01 -8.454276552624E-02 3.391146756348E-01 1.308675347582E-01 -1.661691408481E-01 1.010762227936E-01 1.525117320973E-03 1.969086040597E-01 5.188422511974E-02 1.669795357362E+00 -4.012005812252E-01 -8.165786081367E-01 -7.495914431658E-01 4.842565728867E-01 -6.370478487037E-02 2.184768669030E+00 -6.725265594106E-01 -4.386156686570E-01 1.711710915224E+01 9.991843446568E+00
 1.357607030403E+01 4.249193996483E+00 -3.710796234826E+00 4.375385070743E-01 1.070217165869E+00 7.000540130184E-02 -4.213112153638E-01 -2.241741444616E-01 8.238483920870E-02 6.599197367712E-02 -3.211252174230E-01 -7.322980573587E-02 -3.525360643310E-01 -4.957442283089E-01 3.138679639244E-02 -6.604892396698E-02 3.493834751020E-01 1.101270578402E-01 2.393392570987E-02 2.079587269412E-01 -4.141581133012E-02 2.217742705717E-02 -1.237834200900E-02 1.260394738380E-01 -1.762450379412E-01 2.914741016497E-01 8.749635118943E-02 3.007548480773E-01 4.682769928493E-02 -1.496160820989E-01 -4.291859373949E-02 -2.212195699447E-01 -3.979116791715E-02 1.038771711950E-01 9.333560672239E-02 5.497440233326E-04 -6.623581957539E-03 -1.575076632912E-02 -5.584178002817E-03 1.153304921371E-01 -2.812593268623E-02 2.702412920130E-02 8.398798872164E+00 -1.204198235843E+00 -3.398941356236E+00 -2.196141000867E+01 -3.842487613864E+00 7.081705394132E+00
 -1.945109159092E-01 -1.722348769083E-01 7.039237338187E-02 -4.264895541333E-02 2.547440151196E-01 4.443077688376E-02 -7.603831470801E-02 -8.021236664251E-02 5.390522474372E-03 4.325461336963E-02 -1.057916052573E-01 -4.306629332524E-02 -2.046895139453E-01 -2.194743623450E-01 -1.258740191694E-03 1.324391795264E-02 1.274965003195E-01 7.064130451029E-02 7.525107339274E-03 5.930334628543E-02 -4.956959101900E-02 6.297049783797E-02 -4.703714614153E-02 5.353716402273E-02 -8.616022257770E-02 1.313693199172E-01 -2.790077832688E-03 -2.307938168008E-01 -2.997803741672E-01 2.562732303094E-02 -3.405067371464E-03 -5.161511921722E-02 -2.130293643869E-02 2.754741586815E-02 2.436608520693E-02 1.595261956294E-02 1.549313036089E-01 -3.719453372862E-02 -7.703457189511E-02 -6.089227098449E-02 3.565450456139E-02 8.938116796949E-03 1.245711735530E-02 2.680218812710E-03 3.889118885599E-03 1.236397038766E-01 2.016728651020E-01 -1.278962606767E-03 1.180862949962E+00
 5.493740295142E-01 6.200758827527E-01 -1.071553011935E-01 -1.060232676668E-01 -8.194561283168E-01 -9.324625345112E-02 1.007235935290E-01 3.777598909264E-02 -3.313683762104E-02 -7.896961987530E-02 3.152433601440E-01 1.024978565140E-01 3.685661970801E-01 3.066231008133E-01 -3.037042947104E-02 -1.133401279501E-02 -1.965918772458E-01 -9.985128113662E-02 -3.479116735896E-03 -8.839407683944E-02 6.326034826043E-02 -5.030271786196E-02 8.697970137730E-02 -7.812563699472E-02 -1.609557869118E-01 -5.452162622160E-01 4.134703439101E-02 -7.552354549600E-02 -3.663869819243E-01 -7.007795394791E-02 9.362773860426E-04 1.265330311110E-01 1.503713249364E-02 -6.926418039348E-02 -5.838011278238E-02 3.278861925070E-03 -2.384285061949E-01 6.955252616006E-02 1.184007936005E-01 7.893586199389E-02 -4.844802648497E-02 8.886691699181E-03 -7.236754167282E-02 1.138382740853E-02 -1.569238117555E-02 -4.753376562588E-01 -7.836023797898E-01 3.037465785920E-02 9.389368669453E-02 2.891002859551E+00
 3.391991387269E-01 3.298754630556E-01 -8.277474660087E-02 -2.125762297575E-01 -9.269811544040E-01 -6.847718112709E-02 9.190000809830E-02 7.308873645918E-02 -1.220078048443E-01 -1.337484027784E-01 5.451949427096E-01 1.996591708680E-01 6.237234521141E-01 4.551209769348E-01 -7.772593939093E-02 -4.724262542182E-03 -3.060212656862E-01 -1.273897646949E-01 -3.064474162815E-02 -1.015953908740E-01 6.605827401032E-02 -6.830241174108E-02 1.513029682753E-01 -1.818464275814E-02 1.337785778063E-01 -4.127804511142E-01 -8.198060558449E-02 -5.638278616047E-02 8.522644511970E-02 2.172032122442E-02 -5.795388128706E-02 1.838605016934E-01 -9.877868708560E-02 -7.106055640444E-02 -1.101894566345E-01 5.921288243154E-02 -4.614940495474E-01 1.335474947538E-01 2.211440426426E-01 1.750044528838E-01 -1.009246931048E-01 7.091742559574E-02 -1.692444714692E-01 3.589101817625E-02 -1.511987847029E-01 -2.268112307184E-02 -3.116247110878E-01 5.601998702875E-03 2.070397460640E+00 -8.991511279539E-01 7.035520512394E+00
 2.375943682103E-02 1.088895141063E-01 -1.004905833170E-02 -2.414705967828E-02 -2.637541013989E-01 -2.875223893892E-02 3.300633529044E-02 3.900985142987E-02 -7.980353425731E-04 -2.845487351005E-02 7.728719978033E-02 2.998124875357E-02 1.255328813496E-01 1.049579989925E-01 -3.817078771105E-03 -1.666063984865E-02 -6.699268764206E-02 -3.964646031626E-02 -5.259302889448E-04 -2.084725164122E-02 3.139643574048E-02 -3.722965006610E-02 3.715922356747E-02 -2.915000406387E-02 3.472651972605E-02 -5.410540713393E-02 1.393063958833E-02 -5.238509230821E-03 8.839387277616E-03 -5.603245283471E-03 8.858912929012E-04 2.929312379404E-02 1.097978172078E-02 -1.890168945104E-02 -1.578795711302E-02 -8.003877727130E-03 -1.042985448927E-01 2.588307366836E-02 5.224724518037E-02 3.768560232700E-02 -2.428788801580E-02 -3.384489567939E-03 1.364236414640E-03 6.927082133424E-04 -1.152941611326E-02 -4.578534967728E-02 4.340050073779E-03 -3.440452534230E-02 -5.239936569547E-01 -3.569827469907E-01 -1.376432256065E+00 5.443849746263E-01
 3.918757034825E-01 3.482692380277E-01 -1.410639611379E-01 -1.986144238142E-01 -9.314917347419E-01 -6.483340451185E-02 5.064450450118E-02 -3.446224064378E-02 -5.082631088682E-02 -1.434700814477E-01 6.316364483859E-01 2.030467621668E-01 6.344999857688E-01 3.478725923675E-01 -8.521413229223E-02 -3.023443481685E-02 -2.390858917671E-01 -1.479355439739E-01 3.129574792301E-03 -8.169884238214E-02 1.041655094744E-01 -7.183906819819E-02 1.793210082103E-01 -9.858480477463E-02 5.447235599287E-02 -3.105174518341E-01 4.057263154777E-02 -1.262301746467E-02 4.948192311870E-04 -2.916185312875E-02 -2.096707487793E-02 1.826342594677E-01 6.294290893493E-03 -9.330104875659E-02 -1.078547559296E-01 -1.598183470803E-03 -4.762104095414E-01 1.367686896325E-01 2.371523544738E-01 1.498438186993E-01 -9.879245848531E-02 1.715422513044E-02 -1.307786106538E-01 2.976033613030E-02 -4.679191961390E-02 -6.611296879001E-02 -2.939006453435E-01 6.499011452573E-02 -3.985669605849E-01 -2.595758115565E-01 -9.561642448839E-01 3.488658080024E-01 4.015605114429E-01
 4.646277974093E-01 4.008567040602E-01 -2.085295682318E-01 -2.957666376650E-01 -1.304402297545E+00 -7.968200493285E-02 5.081821754703E-02 -7.311756003125E-02 -5.222013936520E-02 -2.121356665120E-01 9.305003050088E-01 2.957659358609E-01 9.253070215363E-01 4.705320557133E-01 -1.252786080898E-01 -5.388521145213E-02 -3.259748422012E-01 -2.207387688814E-01 1.284185146703E-02 -1.059326722399E-01 1.627304194837E-01 -1.131183744835E-01 2.731501318537E-01 -1.580495311239E-01 3.554525167643E-02 -4.302424636495E-01 9.421934720825E-02 4.131126804673E-02 -1.760001988614E-02 -6.395652301578E-02 -2.351254725538E-02 2.577174667151E-01 3.010170833999E-02 -1.374144398685E-01 -1.557527678557E-01 -1.885867751151E-02 -7.111337394548E-01 2.027153762026E-01 3.560885525253E-01 2.212703803537E-01 -1.473408364528E-01 1.119022115378E-02 -1.681679503869E-01 3.873997482401E-02 -5.135843763288E-02 -5.800922187487E-02 -2.453570069444E-01 -7.378420722927E-02 -1.410657254287E+00 -9.366539133042E-01 -3.629728007547E+00 1.423165474657E+00 1.029755101303E+00 3.852339318006E+00