#BIOSYM hessian 1
@Type: Hessian Update
@Units
 distance: 	A
 energy: 	Kcal/Mol
#header
@natom 19

#label
L1      L2      L3      L4      L5      L6      L7      L8      L9      L10     L11     L12     L13     L14     L15     L16     L17     L18     L19

#element
Li Li Li Li Li Li Li Li Li Li Li Li Li Li Li Li Li Li Li

#matrix
57
 1.362337724174E+01
 2.359897115870E+00 8.610634795429E+00
 -5.659437256669E-01 3.008509325899E+00 2.014602261222E+00
 -1.313669543407E+00 -3.227021602826E+00 -8.380392352702E-01 4.392959081593E+00
 2.163210495012E+00 -1.817840233222E+00 -7.555496995821E-01 -3.768756466777E-01 3.810539927793E+00
 1.139499434494E+00 -1.436387581740E+00 -1.078619130054E+00 -3.170094650725E+00 1.155971941493E+00 1.605718126263E+01
 -1.382480743833E+00 -2.114370952573E+00 -1.088429226091E-01 1.506239201548E+00 4.922049032407E-01 1.175530000785E+00 6.923841120231E+00
 -2.476392511947E+00 -1.413585864802E+00 -1.298100509101E-01 1.338469237980E-01 -4.809776085583E-01 4.962104864275E-01 -2.993055205999E+00 5.076235131121E+00
 -1.476654838293E+00 -1.387633469589E+00 1.476856734664E-01 1.174576243515E+00 6.481648782369E-01 1.979493026593E+00 4.584292348122E+00 -7.460528941070E-01 5.493858561884E+00
 -6.357514128293E-01 -6.172505398749E-01 -4.809029916112E-01 -1.071926125976E+00 -8.969756495946E-01 -3.464207631464E-01 -7.056916144048E+00 6.383076894727E+00 -3.768217472317E+00 1.213762907576E+01
 3.613524461339E-01 -1.794904725831E+00 -1.383111056699E+00 7.228271227575E-01 6.603589777845E-01 3.359422966796E-01 5.075372199215E+00 -4.745704459401E+00 2.686139834280E+00 -6.802045457137E+00 8.017364334423E+00
 2.045305842555E-01 4.840592818673E-02 -5.569876139212E-01 3.365239304248E-01 2.507726390773E+00 6.005949096365E-01 -3.344494949069E+00 2.091282726510E+00 -2.032323773489E+00 -1.029741286524E+00 -3.954792061870E+00 2.132072797683E+01
 1.362112881180E+00 -5.044952833016E-01 6.933524786299E-02 8.734888011065E-01 -1.459220598062E-01 -4.658255966645E-01 1.992495731028E-01 -3.168594160238E-01 -2.159366407901E-01 -1.095338301993E-01 -3.235354712234E-01 -7.217437661139E-01 2.254540264787E+00
 -1.501215421906E-01 -5.874953200235E-01 1.978541496435E-01 7.369790165631E-01 4.737854051689E-01 -1.041824531013E-01 -1.165041996058E-02 -1.216920816463E-01 -1.597876275697E-01 -1.889514405729E-01 -6.624904592587E-01 -6.995793166023E-03 8.952574594636E-01 2.119362586094E+00
 8.800316751966E-01 -4.072684492078E-01 -4.206044188699E-01 9.154395591408E-02 2.114530397643E-01 -7.989417011933E-01 -2.186766155527E-01 -8.136552145222E-01 -1.391067089654E+00 -2.032318792015E-01 4.697053750794E-01 -8.549238692169E-01 2.848006940588E-01 1.682328386379E-01 1.366473639351E+00
 -1.061756613000E+00 8.579697913390E-01 2.716830624763E-01 -4.568868525996E-01 -1.946460849702E-01 4.932640886750E-01 -2.523376967832E-01 -3.129242552138E-01 -4.189067033156E-02 -2.713979118384E-01 4.153187169993E-02 -1.135159892473E-01 -8.865098242687E-01 -5.041321226823E-01 3.553948558850E-02 1.109677216926E+00
 -1.874098710495E+00 -1.404394519832E+00 -1.935757498992E-01 5.243385568506E-01 7.891605660289E-02 4.904573492658E-01 6.129885772222E-01 1.513704580487E-01 2.092258752206E-01 -4.652627549476E-01 1.027220064405E-01 3.725055030262E-01 -2.914608540034E-01 1.179839894213E-01 1.252372831676E-01 3.513491336916E-01 9.819276398687E-01
 -6.379209798627E-01 -9.058734182515E-01 -3.261754007971E-01 3.594780748132E-01 -1.297871091310E-01 -6.139157916716E-01 4.873122041384E-01 4.598043097031E-01 4.998925521565E-01 3.701807096139E-01 3.043021273095E-01 -1.108915208813E+00 -5.667441778386E-01 -3.308758036200E-01 -8.986237987363E-02 9.163820766084E-02 5.913186772373E-02 8.596333193151E-01
 3.292622812796E-01 1.051617596642E+00 6.548427215290E-01 3.020166312258E-01 8.138046543392E-01 1.998665088484E-01 1.011412599356E+00 -1.812083884782E+00 1.233237271417E-01 -4.047896254447E+00 1.971040837909E-01 3.964037640699E+00 -8.660494189005E-02 6.886099981059E-01 1.390572080992E-01 4.966557938326E-01 5.008851498113E-01 -6.239525565368E-01 3.382329909724E+00
 -1.223029837751E+00 1.313441473640E-01 6.972621040519E-01 -4.782075951356E-01 1.131425207993E+00 2.958403474532E-01 9.733514975630E-01 -6.329575623385E-01 7.043616453183E-01 -2.145509248383E+00 -2.761756747046E-01 8.392680691973E-01 -6.118364188707E-01 3.124930719112E-01 2.839045568352E-02 8.490357197958E-01 5.956147208216E-01 1.686746946676E-02 2.045718068272E+00 3.131172436648E+00
 -7.666036709420E-03 2.231897979921E-02 -2.608547565988E-01 -1.123366138121E+00 -9.388933680695E-01 6.655916190040E-01 -1.409566897409E+00 1.514798644084E+00 -6.550625939141E-01 3.715537212470E+00 -7.660065692616E-01 -3.808867645698E+00 -4.006036525160E-01 -8.437876415777E-01 -2.132432524986E-03 6.321689621375E-02 -1.753060661022E-01 3.459536997727E-01 -2.265033861256E+00 -1.130216039495E+00 2.416310009050E+00
 1.429205298228E+00 1.501976583593E+00 -5.862447387646E-01 -1.254349879960E+00 -1.254844739857E+00 -1.841999191750E+00 -1.220537100500E+00 1.162170822160E-02 -9.920702343026E-01 4.467516104764E-02 8.248315347746E-01 9.114592758928E-01 -1.959862836766E+00 -1.588158130826E+00 -4.038783044416E-02 8.009790093316E-01 -2.837461808953E-01 8.749699724183E-01 4.925336183472E-01 1.257184678041E+00 8.949531287797E-01 1.014248438410E+01
 7.948357085649E-01 3.317143980373E+00 1.287612513512E+00 -5.284557052532E-01 -7.450165849425E-01 -7.597956373127E-01 -1.334525005198E+00 -4.478650456405E-01 -6.803726287438E-01 3.934750472926E-01 -1.151499930182E+00 3.878558498438E-01 5.392906255923E-01 7.352658840851E-03 -1.422886109905E-01 2.453847394721E-01 -5.986591554437E-01 -8.676554018463E-01 5.110058561379E-02 -8.061301996664E-01 -1.130422343419E-01 -2.236391524064E+00 2.656355775116E+00
 5.108834955341E-01 2.158941952295E+00 1.106432848754E+00 -7.515337064179E-01 5.262558475354E-01 -1.158546331736E+01 -1.151816069943E+00 -7.284260510031E-02 -1.911102742146E+00 7.068484505734E-01 -8.002233311608E-01 -8.495521440296E-01 -6.070454873635E-01 -3.976329989360E-01 6.207364369108E-01 -4.624250428514E-01 -6.440822129906E-01 9.089741326143E-01 -1.960765808585E-01 1.285297723398E+00 2.770130099351E-01 4.430817783174E+00 -8.500470334664E-01 1.337855527641E+01
 -1.596761222392E+00 2.340487810954E+00 3.979493918429E-01 -2.428390605515E+00 -2.204232915897E+00 1.639583386519E+00 -9.694405263881E-01 2.577633342004E-01 -8.056838273229E-01 1.165321080748E+00 3.619969038653E-01 -2.411690537631E+00 -1.091280085308E+00 -1.191846111832E+00 -1.872288556245E-01 6.661175526434E-01 -2.031091412666E-01 2.006685650809E-01 -1.068691725447E+00 -3.009060698233E-01 1.701729527984E+00 3.443276362067E+00 -4.730439815718E-02 2.506667609668E-01 3.888216673802E+00
 -2.515508235933E+00 2.159685648191E+00 2.192835097380E+00 -7.663766834146E-01 -3.761343943674E+00 2.125279162250E+00 1.043719475758E+00 2.155408315196E+00 6.934960628589E-01 7.709107713647E-01 -3.688797873989E+00 -3.258432836161E+00 1.129467794474E-01 5.154999397968E-02 -8.210232694203E-01 -3.865747490928E-01 1.971812535612E-01 6.566559930360E-01 -4.177893862878E-01 5.432930585717E-03 1.019523610125E+00 -5.591671362244E-01 3.433592068194E-03 -4.400797340586E-01 2.009916771770E+00 1.138621076110E+01
 2.758799175369E-01 -1.735156804976E+00 -9.611938724539E-01 1.296077598470E+00 2.710093403428E+00 -2.349992011221E+00 -1.231186157821E+00 -1.120452712057E+00 -9.681941424135E-01 7.536817377551E-01 1.277803458482E+00 -1.024620379078E+00 3.092666015678E-01 1.259317803491E+00 7.946188997425E-01 5.313514310741E-01 2.497963341165E-01 -5.669663017859E-01 6.152729443191E-01 1.013048535806E+00 -7.429333777028E-01 -1.004038133523E+00 1.346101342070E-01 3.671967436639E-01 -2.189378185758E+00 -7.714328805509E+00 8.324045960921E+00
 2.042283543681E-01 6.704076515279E-01 4.494255214022E-01 1.950729358709E-01 -1.635186975856E-01 -1.328332020543E+00 8.888601062360E-01 -6.543476287821E-01 3.348000399906E-01 -1.627603003368E+00 3.307107529400E-01 9.658995460384E-01 5.002046976986E-01 3.489426480716E-01 -9.016902339385E-02 -5.502368983455E-01 -2.349431337482E-01 -7.949626845803E-02 4.245602160316E-01 -2.627832240589E-01 -7.706637204176E-01 -6.711941779046E-01 2.521063519429E-01 1.056046724344E+00 -4.150018937547E-01 9.263062062209E-01 -1.052845600129E+00 1.168737762322E+00
 2.407969807786E+00 1.836768510653E+00 -3.285023026828E-01 -9.580794311603E-01 1.371641208230E+00 1.640022421463E-01 -1.790143293024E+00 -1.517622449632E+00 -7.181018445667E-01 6.244555453649E-01 1.609240770262E+00 -5.786293466341E-01 -4.784521105078E-01 -2.537724377500E-01 2.084942369774E-01 8.944821353571E-01 -6.163662435586E-01 -7.764603917821E-01 -4.147553106650E-02 -2.320125610189E-01 2.012824498221E-01 5.983257897783E-01 1.448590670649E+00 -1.036404539512E+00 1.591261485774E-01 -6.407941184306E+00 5.029125411448E+00 -1.078824219888E+00 5.921788920165E+00
 9.915800667158E-01 2.119733081877E+00 1.074951824976E+00 7.213135659245E-02 -1.946017927784E+00 -8.113009860784E-02 1.469604686371E+00 8.548814944285E-02 1.425125760389E+00 -2.058555681239E+00 -3.953237916190E-01 2.123257636095E+00 2.126110975742E-01 -8.338847115576E-01 -8.865412717200E-01 -7.185429853526E-01 -5.686667601748E-01 1.383955268929E-01 -1.124434488201E-01 -1.377942367385E+00 -2.772135558729E-01 -2.350414528520E-01 9.051904123569E-01 -1.692932919090E-01 5.324212995838E-01 4.997828421963E+00 -5.908628825786E+00 1.456072844880E+00 -3.323264350635E+00 5.809740772670E+00
 -4.827326210382E+00 3.084743691167E+00 2.687042608275E+00 -3.771613359564E-01 2.739882472124E-01 -4.160114212703E-01 2.113761698182E-01 -3.229516214829E-01 7.287141134030E-01 -4.802308615267E-01 -1.783881829736E+00 2.422421293808E-01 -1.257562743972E-01 3.914541206456E-01 -5.229171598516E-01 9.200387035353E-01 3.946654570918E-01 -1.051595946871E+00 3.775410839698E-01 -1.784964964292E-01 -9.075661295324E-01 -9.375417466066E+00 4.215834239863E+00 -2.540454939185E+00 -1.886386639890E+00 1.119033275182E+00 7.070241016192E-01 4.788070234043E-01 8.213424212884E-01 7.372757812517E-01 1.511328675385E+01
 5.441131772225E-01 -1.832462021593E+00 -9.006207473576E-01 -5.975749752321E-01 1.066010528033E+00 6.315732069602E-01 2.819595369813E-01 3.371765549255E-01 2.168353275073E-01 8.322788248144E-01 7.340348448387E-01 -1.142087340050E+00 -3.658655427955E-01 -9.159993121474E-01 2.526850786230E-01 4.604583452121E-02 8.725583613975E-02 4.975574251027E-01 -1.013557119674E+00 1.112942881788E-01 9.215281812348E-01 4.590777478339E-01 -1.041229568570E+00 8.312048753382E-01 9.290191314202E-02 -1.033180302999E+00 1.377945404839E-01 -5.326961697198E-01 -4.330924344051E-02 -6.916854235703E-01 -1.241461022591E+00 1.897711457157E+00
 2.311016409597E+00 -2.389073834854E+00 -1.400486885756E+00 1.415341325802E+00 -2.656382862762E-02 1.582258148955E+00 3.222323172442E-01 -2.675674111481E-01 -3.403845941780E-01 -4.675947786750E-04 8.648890863702E-01 -2.290305633326E-01 1.508245677026E+00 7.154251377688E-01 5.453942675198E-01 -9.136060163813E-01 -1.181041868318E-01 -1.754463103751E-01 -4.308607966550E-01 -1.342518721549E+00 -1.538340891517E-01 -9.010106478323E-01 -5.208029600859E-01 -2.679886174804E+00 -9.631087456377E-01 -7.930807791266E-01 2.401596203452E-01 7.550264969862E-02 -2.389733880806E-01 -1.108912916130E-01 -2.604437810893E+00 4.923186802428E-02 2.811837327092E+00
 4.643430078311E-01 -2.277948286370E-01 -1.137537957389E-01 1.760099168157E-01 -3.638645759530E-01 -1.368603534669E+00 3.448508409758E-01 -2.223727907445E-01 1.529811642269E-02 2.291057401465E-02 6.538992718390E-01 -1.716200665325E+00 4.952230756088E-01 3.911024613214E-02 1.860350495713E-01 -4.704495880457E-01 -2.546483957588E-01 1.551796074205E-01 -8.066693072441E-01 -6.068470551979E-01 3.295208543248E-01 9.838001868197E-02 -1.368689431155E-01 1.256414428748E+00 1.558592457549E-01 2.608187046004E-01 -3.924192625795E-01 3.059864316559E-01 -4.480381896840E-01 4.124362534484E-01 -9.147570415820E-01 2.146390405552E-01 4.048423328721E-01 7.858797165125E-01
 1.216123385580E+00 6.994330095667E-01 2.126201762386E-02 -6.220406169788E-01 4.854285718143E-01 -3.026008968587E-01 -5.637620834355E-01 -1.070932795591E-01 -6.117701821826E-01 6.202016233293E-02 -1.978782415249E-01 1.729882936136E+00 1.613104171903E-01 -3.562834910973E-02 1.459392426965E-02 -3.260628788954E-01 -3.494920774108E-01 -1.623503694124E-01 4.435841975016E-02 -3.862519037568E-01 -2.259011418237E-01 -4.496748578950E-02 2.750624692522E-01 7.754718877515E-01 -1.286169334707E-01 -5.692428090319E-01 -1.980134882062E-01 3.542928617616E-01 2.292965851520E-01 3.887508003276E-01 -4.201806090829E-02 -5.433803935062E-02 3.112553788848E-02 3.250211076396E-02 7.092855336874E-01
 -1.833652324411E-01 8.529536121703E-01 6.383266544874E-01 -3.360204004834E-01 -1.556980383058E+00 3.323420201225E-01 1.843617545020E+00 -2.252589627560E+00 1.064611299340E+00 -1.470454388273E-01 2.695943423236E+00 -1.352524322038E+01 6.478314481453E-01 2.484746315085E-01 7.288030759610E-01 7.061255696081E-01 -1.013657600063E-01 6.613218061746E-02 -1.605772309954E+00 2.428585992989E-01 1.968368929782E+00 -5.832075759192E-01 4.568895345720E-01 -8.030184610369E-01 1.598817392393E+00 5.571022806820E-01 2.385488792631E+00 -9.950344573061E-01 2.057070979607E+00 -2.625453875100E+00 5.563142810996E-01 2.948396806168E-01 6.912323054301E-02 7.582209104850E-01 -1.325753197865E+00 9.993886109229E+00
 -4.932176492727E-01 -2.895049518164E-01 -2.095812429227E-01 9.663714731630E-01 -2.619639511195E-01 7.414773524394E-01 -2.903477456239E-01 3.878602272188E-01 1.027050743420E+00 2.966990292893E-01 8.954050960712E-02 5.748131263438E-01 -5.346298058072E-01 -4.359534833489E-01 -6.393755427769E-01 5.099514523110E-01 8.116525678596E-02 7.560957470634E-02 -1.786220340503E-01 -1.232509949408E-01 9.400519746988E-02 1.201699666858E-01 3.641099982081E-01 -2.077937098921E+00 -1.337286925115E-01 -8.173792919641E-01 5.078559642378E-01 -6.150691429604E-01 9.797313873505E-01 7.657338808373E-02 5.220433362853E-01 -1.368067252402E-01 -9.470092145960E-02 -3.900093609337E-01 -4.152146950034E-01 4.352089588955E-02 1.821164458568E+00
 -6.136024624195E-01 -7.881402895223E-01 -2.965350131588E-02 2.676643554773E-01 -5.327104149372E-01 -1.155437341030E+00 1.500402351998E-01 1.107733585601E+00 2.017430334915E-01 5.323616836876E-01 -1.127264806251E+00 8.280327680058E-01 -7.368864751403E-03 -2.557823775772E-01 -2.512418847373E-01 -3.951662327291E-01 1.141564735212E-01 6.492720199734E-01 -2.731000166011E-01 3.494336968138E-02 1.556024029965E-01 9.247772245015E-01 -9.572136255641E-01 1.864512933532E+00 7.857655276918E-02 2.430766758111E+00 -2.226521965875E+00 4.718596656454E-01 -2.571279622440E+00 1.474240776406E+00 -1.476938599022E+00 3.780139433608E-01 -1.693633371712E-01 2.680743148438E-01 -2.230757944385E-02 -1.551000894678E+00 -3.926621595576E-01 1.859945511048E+00
 -8.740998196951E-01 7.619949435421E-01 3.331614839629E-01 -4.321169729790E-01 -1.253468493020E+00 -2.324635879692E-01 -9.148406074102E-01 2.014400816911E-01 -1.084874151624E+00 7.740377962340E-01 -6.972100734947E-01 -1.591714934282E-01 -5.272780980076E-02 -2.253359500117E-01 9.176569022184E-02 2.472707861245E-01 8.449945455575E-02 -1.357534105424E-01 -1.223652559807E-01 -1.662134765518E-01 4.175582579533E-01 3.329903967283E-01 3.994771745926E-01 4.716312999080E-03 9.751139171745E-01 1.160471227466E+00 -9.640258365003E-01 -1.117890329265E-01 -4.455021835090E-01 3.362035460106E-01 3.351000101813E-01 -1.690714584931E-01 -1.660270169393E-01 1.509270187434E-02 -1.359566190314E-01 2.093604994492E-01 -8.077498976872E-02 1.555091698884E-01 9.177653743967E-01
 3.226906156822E+00 5.152464592807E-01 -3.881000485275E-01 -2.907772925471E+00 2.534179537465E+00 3.230335376106E+00 -8.767444245974E-01 -5.376508514107E-01 -1.169190754789E+00 5.336416891971E-01 2.461199060296E-02 1.044594323405E+00 -4.676892221294E-01 8.788616837374E-03 3.666915957496E-01 -1.951450543062E-01 -4.263965104516E-01 -2.706630855744E-01 3.503508801089E-03 1.442101849170E-01 1.931686609540E-01 -1.092031470170E+00 -7.808450372531E-02 1.678550551298E-02 -1.744483685347E-01 -1.540557332332E+00 5.869100988526E-01 -1.476002378382E-01 1.181099725562E+00 -1.101625074069E+00 6.348968168394E-01 9.988123489904E-01 -2.188825106113E-01 -2.607976917142E-01 8.955264369430E-01 -9.928583820240E-01 -1.241259634801E+00 -5.117586881293E-01 -3.978812698568E-01 4.500312760476E+00
 1.176706715901E+00 2.046353073348E-01 -9.824373907496E-01 1.609337615976E+00 -2.333980150456E+00 -2.886435363870E+00 -6.944087617052E-01 -2.041712887635E-01 -1.086101923807E+00 1.370494201625E+00 1.755202944854E+00 -1.158948789305E+00 6.381302744778E-01 -4.960568318005E-01 1.079880923121E-01 -1.198134803283E+00 -1.024516586627E+00 2.396164349236E-01 -2.618029255582E+00 -4.581773642762E+00 8.794273833332E-01 -1.085137386399E+00 1.154066350204E+00 -6.870504357292E-01 4.299712526676E-01 -3.194463974214E-01 -1.450425124740E+00 8.582071796835E-01 3.105470848518E-01 2.444612012017E+00 2.165324934203E-01 -7.326475930218E-01 1.887809777708E+00 1.024074425219E+00 5.810815415264E-01 -4.940937596794E-01 1.826996898266E-01 -1.013415366798E-01 2.805112675155E-01 -1.008973112856E+00 8.243734992031E+00
 -2.079151246537E+00 -6.084667434311E-01 7.268950931095E-01 4.072784758467E+00 -2.001418603388E+00 -4.023752673505E+00 -2.495988601246E-02 1.046317652659E+00 7.689547749743E-01 -8.235321314036E-02 -2.087012319075E+00 4.820197035059E-01 1.611086603704E+00 1.006884628539E+00 -2.334222294718E-01 1.203212507109E-01 3.604019397451E-01 -4.272241529462E-01 1.266567947287E+00 1.001602848094E+00 -1.115525995135E+00 3.980521524217E-01 5.805023852455E-01 -2.874225066961E-01 -1.480532973352E+00 9.571563167376E-01 1.138108249835E+00 -6.578399162640E-03 -9.289960502312E-01 1.638264131631E-01 -9.243474977420E-01 -1.634649513438E+00 6.725556096417E-01 -2.779133936660E-02 -1.110888932452E+00 9.106209956158E-01 1.371623440216E+00 1.898648649698E-01 3.409557162111E-01 -4.972964105805E+00 -1.050972440438E+00 8.545057673348E+00
 -6.518190168871E+00 -1.909407956775E+00 -3.174674340360E-01 1.453099847105E+00 -5.539850289406E-01 -1.812772617551E+00 6.714953718111E-01 1.295412804602E+00 7.875416453814E-01 6.777719458810E-01 3.758666526990E-01 -4.409929411770E-01 -2.473225075269E+00 -5.557634127056E-01 -4.330769805327E-01 1.009056014959E+00 1.168583996268E+00 1.186447924575E+00 -1.791644051622E-01 6.298512196399E-01 1.731569437349E-01 5.628162744486E-01 -1.247080976788E+00 6.625961132267E-01 3.564409167294E-01 3.307788094073E-01 7.278527987475E-01 -6.369669964403E-01 -5.767319716727E-01 -1.256994119421E+00 2.207788292956E+00 4.650433603760E-02 -1.856042668770E+00 -6.383383266100E-01 -7.926201458678E-01 -2.198470254662E-01 7.976072616628E-01 3.663788158597E-01 1.421753219643E-02 -1.253514923549E+00 1.541569667832E-01 -1.561127145248E-01 6.471439501287E+00
 -1.547921191797E+00 -8.751477811009E-01 -5.472109719441E-02 1.165329937332E+00 -3.333098294149E-01 -1.595468160548E-01 1.843030175405E-01 3.505789104897E-01 4.786567568067E-01 -3.104337944568E-01 -3.401036725266E-01 5.560523926363E-01 -2.323975233693E-01 2.693368980725E-02 -8.142119243923E-02 5.101229066987E-01 4.372824232385E-01 4.165592735157E-02 8.048426404813E-01 1.089733861541E+00 -3.467685055887E-01 1.061753027664E+00 -4.320085453968E-01 -7.080502976539E-01 -1.915396740566E-01 -2.001621498661E-01 7.719724982853E-01 -4.959349085594E-01 -3.879907159658E-02 -7.527959214353E-01 -7.492229501861E-01 -1.710446414644E-01 -1.428228037270E-01 -3.786592794843E-01 -6.273610038865E-01 2.937946336327E-01 7.533684186365E-01 -3.227360566841E-02 1.136651369144E-01 -1.541322052763E+00 -1.558526594619E+00 2.546806935605E+00 1.010353723875E+00 1.481978136447E+00
 -1.613349932535E+00 -7.685025731390E-01 -1.191418024139E+00 -3.236280721269E-01 -8.316927719279E-01 1.323482499082E+00 5.822453002003E-01 1.201957641254E-01 9.122449017411E-02 6.115409312705E-01 2.354822291280E+00 -1.192971328930E+00 -1.569238015441E+00 -8.595888588867E-01 -3.098403989607E-01 -2.567208041986E-01 -8.270377104626E-02 9.997103330107E-01 -1.909479153602E+00 -2.541689114030E+00 9.835579384253E-01 1.023559946984E-01 -6.649276932063E-01 -1.396720096973E+00 1.477612392881E+00 3.798101991876E-01 -1.569157073481E+00 1.654890006800E-01 -6.161788701413E-02 9.306005666824E-01 2.863742132059E-01 1.371550512393E-01 1.895115968242E-01 1.674434372822E-01 3.365643207646E-01 -7.214848180419E-01 -3.583662308219E-02 1.055360059103E-01 -1.422540709426E-01 1.057999497453E+00 4.729414084609E+00 -4.477266204350E+00 3.067691529040E+00 -1.443831340898E+00 6.527574563257E+00
 1.456638447164E+00 -1.311335898951E+00 -7.298798440049E-01 1.117985582469E+00 -7.831896719835E-01 5.671557883380E-01 -3.195580324740E-01 1.940023103461E-01 -1.021925151540E+00 2.801548314621E-01 -4.830904368305E-01 -2.639487810201E-01 6.040364399381E-01 9.810114408790E-01 5.908326119212E-01 -5.149571714472E-01 9.768117782352E-02 1.973319223073E-01 3.696164390507E-01 -2.242641127686E-01 -1.625867114834E-01 1.283929988984E+00 -1.067107444499E+00 -8.237784955583E-01 -1.609237344050E-01 1.390576962675E+00 -5.996769123211E-01 -2.076893505390E-02 -1.360868951669E+00 -3.386200719897E-03 -3.914964744628E+00 -4.191127184677E-01 1.753496572311E+00 1.925035107840E-01 -1.635443511387E-01 -4.589115033734E-02 -3.242094593417E-01 4.186410846284E-01 1.702606114026E-01 -6.136918967233E-01 4.957646052350E-01 1.369141721476E+00 -6.668410976460E-01 3.788678497650E-01 -1.319520029738E-01 2.752095166302E+00
 3.170391272752E+00 7.361865710132E-01 -5.621041189808E-01 1.137830969032E+00 -9.417949060986E-01 -3.407474942014E-01 -1.058871273915E+00 5.002534057691E-01 4.683009402742E-01 9.744202279599E-01 -3.586409920428E-02 1.309364879986E+00 8.912620093843E-01 -2.135929731754E-01 -5.582135265897E-01 -5.223455751186E-01 -9.334266684322E-01 -2.790732098573E-01 -5.748075963095E-01 -1.484927368629E+00 1.742296996196E-01 2.538098138701E+00 4.605227222462E-01 -1.171363053139E+00 2.791147428767E-01 -1.627227975279E+00 2.405837044218E-01 3.335451849083E-02 1.584763284694E+00 8.831160700651E-01 -4.320324855839E+00 -7.351871188871E-01 1.534724125580E+00 2.955897802709E-01 1.803892661369E-01 -4.715025263017E-01 1.077909797652E+00 -2.978729340787E-01 -2.867226528507E-01 -1.721898293590E+00 2.252757469537E+00 2.599615223247E+00 -2.273375250485E+00 3.400445229828E-01 -5.698695197863E-01 9.221368408872E-01 4.843932895478E+00
 -6.573079738616E-01 1.605298223488E+00 2.042642402193E-01 -1.259515174796E+00 -9.969284288704E-02 -2.933628357861E-01 -6.712176385703E-01 3.699646146077E-01 8.036667515021E-01 6.406787561997E-01 9.359320869655E-01 9.537994213050E-01 -3.242279173864E-01 -1.223143293441E+00 -8.133182767930E-01 1.799542150195E-01 -6.450414816570E-01 -3.170592576652E-01 -1.280341705384E+00 -9.082206714042E-01 7.447441510268E-01 6.931926101436E-01 1.116091144937E+00 3.787230879762E-01 1.430670490816E+00 -2.148996311904E+00 1.104272175898E-01 -4.176505557127E-02 2.026517482707E+00 5.926333732898E-01 8.236625144501E-01 3.439609005549E-01 -8.560930128476E-01 1.882945855042E-01 3.755931193111E-01 -3.578737588474E-01 7.026476196017E-01 -5.463180253025E-01 -4.353786794225E-02 -1.752245258318E-01 1.082853949708E+00 -7.259308442819E-01 -7.295221811619E-01 -4.163099291983E-01 3.230421999352E-01 -2.048019222939E+00 1.554013446738E+00 3.838417917056E+00
 -7.739902045098E+00 -1.499121814024E+00 8.534098980376E-02 -1.389001023133E+00 -3.226020993685E-01 4.030814490418E-01 4.295176277202E-01 7.014952131624E-01 -3.435850774093E-01 -8.486911502467E-02 7.971966749847E-01 1.084671848806E+00 1.675519023928E+00 1.673231502534E+00 -1.414158636457E-01 -9.987590482041E-01 5.078928986219E-01 -8.069214980594E-01 -5.197007942782E-01 2.347434680888E-01 -4.995050522651E-01 -2.114825689391E+00 -4.447146088863E-01 6.681599085443E-01 1.552091517010E+00 -4.691935492097E-01 7.186645087604E-01 9.816972496613E-01 -1.126029019549E+00 -1.491922671332E+00 9.319303960281E-01 -3.728203479925E-01 1.068305036788E-01 7.304018932129E-01 4.457584058126E-01 -4.191563466694E-01 -1.757285639255E+00 3.546121893352E-02 4.904735292403E-01 -1.223633948050E-01 -6.994900144017E-01 -5.496443233730E-01 -6.463809852865E-01 -6.257807181017E-01 -2.428742811643E-01 -8.757917769763E-01 -1.225255971495E+00 2.216371487992E+00 1.490872530791E+01
 4.447159985717E-01 -2.973252032994E+00 -7.709155268924E-01 1.759622485850E-01 3.917666443833E-01 4.511162812629E-01 1.589997094904E+00 2.698116170618E-01 1.783535745104E+00 -2.646107857471E-01 1.265871219461E+00 -1.375537466772E+00 7.748660834592E-02 -2.203620160824E+00 2.140460249137E-01 3.654574014220E-01 4.443946391356E-01 3.138598224766E-01 -1.570994058788E+00 2.798651707380E-01 1.514009087668E+00 -1.428536310293E-01 -6.473342617824E-01 1.826729651492E-01 -4.921933158187E-03 5.433634772765E-02 -2.108497294642E+00 -7.175412478035E-01 -1.512903489071E+00 1.470841979645E+00 -3.828248819423E-01 2.707585695297E+00 -8.462841275469E-02 5.006058327117E-01 -6.965493817919E-01 5.382376501112E-01 9.213345212114E-01 1.009459045861E+00 4.200217140209E-01 -8.801534706402E-01 -1.665193558175E+00 7.971873926439E-01 -1.345370907837E+00 7.325792317135E-01 -2.629592838773E+00 -1.399728957669E+00 -5.995245074453E-01 1.648452518035E+00 -1.783469440703E+00 1.065418624756E+01
 3.296608409969E-01 -9.640881272116E-01 4.515467675482E-01 6.460882982590E-01 1.943735674822E+00 4.037119663936E-01 3.904406988648E-01 7.135143333309E-01 3.332882900276E-01 2.759429894443E-01 -2.179139288608E+00 1.490271017824E-01 -4.129197894624E-01 1.551675386633E+00 -2.692369368031E-01 -3.033067537518E-01 4.162634741656E-01 4.689371004078E-01 1.232362302533E+00 1.253520418569E+00 -1.076838672486E+00 -2.759291609469E+00 -7.110902121776E-01 3.653625371464E-01 -2.656140728381E+00 1.756041999641E+00 1.030082246772E+00 1.732252411918E-01 -1.340365414012E+00 -9.156368332906E-01 2.455179120033E+00 -4.861403444307E-01 -6.194070781895E-01 -6.382247133263E-01 3.902899912970E-02 -7.940477695124E-01 -4.808010282997E-01 4.696028313323E-01 -9.435943211229E-01 1.706791228361E+00 -1.918171031146E+00 -9.706573951929E-01 1.914635873951E+00 -2.300200294274E-01 4.235079380974E-01 5.258315294277E-01 -2.495932202389E+00 -3.266183685395E+00 -2.418970852452E+00 -3.479859283096E+00 6.499553026542E+00
 1.388075897333E+00 -1.149075899006E+00 -7.082607630994E-01 1.107735785421E+00 -7.803117958529E-01 -3.038203246300E-01 -1.634004861366E-02 -8.859856826857E-01 -8.624282609743E-01 -3.889704810590E-01 6.608822958322E-01 -8.814191028443E-01 -6.746817438784E-01 -1.497974798881E+00 1.006587105384E+00 9.441027968082E-01 5.132669990519E-01 1.917908398772E-01 -4.116982101018E-02 -1.290192901731E-01 6.606181945988E-01 3.161728485463E-01 8.718093314008E-02 -1.285661396743E+00 -2.173406032731E-01 2.050690361964E-03 -7.690060972580E-01 -9.141701175841E-01 -2.307534547682E-01 4.838912868230E-01 4.949748861432E-01 1.004217771058E+00 3.305073873263E-01 -2.096253236782E-01 -7.393740866532E-01 8.127522085157E-01 1.007100011691E+00 1.754465001071E-02 7.923768263268E-01 -9.226547589687E-01 3.740991341590E-01 9.290297943387E-01 7.019517997032E-01 9.437019849950E-01 -5.316609372705E-01 2.848547228600E-01 -8.205144059127E-01 -1.031483224225E+00 -5.825533160438E+00 4.937995512316E+00 -1.222573919491E+00 6.118011197033E+00
 -4.009781520311E+00 -4.314849841919E+00 -1.573866785664E+00 1.637213936438E+00 9.399500196220E-01 5.453973666702E-01 5.620570260625E-01 4.983381266595E-01 -4.698912294357E-01 1.572926680576E-02 7.952148374607E-01 1.499444080208E+00 -4.273994125800E-01 8.702008318420E-01 4.002553629043E-01 -5.526677002710E-03 1.261708867723E+00 3.811109860176E-01 6.432813035570E-01 6.774337163869E-01 -8.234231542016E-01 -6.767033373529E-01 -1.986929905596E+00 -1.238585820007E+00 -1.059962731116E+00 -1.785149542583E+00 2.352050004520E+00 -4.482700649199E-01 -5.085280338155E-01 -2.832692795213E+00 -5.132235408224E-01 1.735778852305E-01 6.668486727231E-01 -4.388127302777E-01 -3.645832925448E-01 -1.006736947218E+00 -1.943142486822E-01 5.949460095162E-03 -2.237275614724E-01 1.382005751860E-01 -5.509048031408E-01 -2.118657036008E-01 3.319320656619E+00 6.982146630614E-01 1.626584657915E+00 8.872020887370E-01 -1.761246155348E+00 -1.913794228108E+00 2.395363516206E+00 -2.097624586358E+00 1.959048096035E+00 -3.947212395599E-01 4.836939421021E+00
 4.166409929029E-01 -2.991000105884E-01 4.376142125657E-02 -2.203685620276E-02 1.010545604219E+00 -9.087087681796E-01 5.950372806710E-01 5.292214521566E-01 1.267982239984E+00 3.617978875758E-01 1.820261628366E-01 -7.374989507486E-01 4.060746358570E-01 3.706062667950E-01 -6.483091745146E-01 -7.563671672648E-01 -4.520598513028E-01 1.810757564055E-01 -5.622665399525E-01 -6.042962825198E-02 -2.063247305637E-02 -1.472341985328E-01 -3.915056859753E-01 1.659138022310E+00 -5.746490870957E-01 -6.798996087958E-01 7.285158596949E-01 3.631586347416E-01 1.903403962290E-01 -2.536059060803E-01 -8.145181089448E-01 1.300621531898E-01 -1.083685069084E-01 3.399951786466E-01 3.336201088795E-01 -9.443976560837E-02 -3.046128704119E-01 2.403446174668E-01 -7.855142483163E-01 4.749130496988E-01 -1.165125374749E-01 -4.092511635324E-01 -3.938401117256E-01 -5.096385889943E-01 8.979074793184E-02 -4.239712052989E-01 6.708373844525E-01 6.886595467733E-01 1.400003957224E+00 -1.013536394645E+00 8.052095953999E-01 -2.507640026736E+00 -1.187872793482E-01 2.010282909559E+00