#BIOSYM hessian 1
@Type: Hessian Update
@Units
 distance: 	A
 energy: 	Kcal/Mol
#header
@natom 19

#label
L1      L2      L3      L4      L5      L6      L7      L8      L9      L10     L11     L12     L13     L14     L15     L16     L17     L18     L19

#element
Li Li Li Li Li Li Li Li Li Li Li Li Li Li Li Li Li Li Li

#matrix
57
 1.340845697090E+03
 2.127077301230E+01 1.210173873817E+03
 1.350110240989E+02 -1.359570372734E+02 1.367083653214E+03
 1.449856260051E+02 -5.514745320286E+01 -1.238826958072E+02 9.911291369992E+02
 -2.281488301452E+02 -2.057565162899E+01 -6.465901918815E+01 8.691221917771E+01 1.186062586401E+03
 -1.371771692552E+02 -6.151798660374E+01 -1.675532812556E+02 1.882150553954E+02 -3.047968380298E+02 1.304324988144E+03
 3.198913549195E+01 -8.028923884027E+01 -1.429077108082E+02 7.405827792217E+01 1.610358593472E+02 8.450013864972E+01 9.293418570382E+02
 -2.097495965087E+02 3.045890318202E+01 1.015261452905E+02 1.546417245659E+02 -8.181593944529E+01 4.607258717080E+01 -1.751132930532E+02 8.500898355470E+02
 1.898495456702E+02 -4.114709246746E+01 -1.027890257764E+02 -8.614827026862E+01 4.466571832872E+01 -9.231207183062E+01 2.223370865850E+02 -1.387918548146E+02 1.224671814582E+03
 1.511813911595E+02 6.982407828088E+01 8.336282888111E+01 5.787240424511E+01 2.886759983508E+02 -1.848474543223E+02 3.633172458230E+01 -9.467692889689E+01 -2.128802164843E+02 1.270515875512E+03
 2.185879255988E+02 4.519909405569E+01 -1.484948841567E+02 2.177775415343E+02 -5.602061781599E+01 -2.071978116754E+02 -1.175327738345E+02 5.096894745355E+02 1.980505714862E+02 -1.024422691711E+02 1.605559330170E+03
 2.006812405015E+02 2.103149759008E+01 -9.577957935666E+00 -6.945597648864E+01 -6.978907206829E+01 1.891026905238E+02 -1.730579256598E+02 6.276998409983E+01 1.314001085832E+02 3.030159560796E+02 -1.717425009743E+01 1.699835900291E+03
 -2.080105930401E+00 3.232494844614E+02 -9.803779676435E+01 2.295330118130E+02 -2.556103109417E+02 1.486288049300E+02 2.533610781322E+02 1.123689162620E+02 3.335817585161E+01 3.079074216822E+01 -1.683367614058E+02 -9.650631184437E+01 1.353810249714E+03
 1.962253585124E+02 3.921147097578E+02 7.483298239699E+01 1.410914357407E+02 9.805082064690E+01 2.635698490439E+02 3.105256221602E+02 -1.552249876197E+02 2.577275689436E+01 -1.070784252991E+02 -2.397268796958E+01 -2.052279948054E+01 -3.653642591412E+02 1.639486670013E+03
 -2.262737587682E+02 -6.313897246219E+01 1.015662443351E+02 -8.106556994585E+01 5.330414672319E+01 8.712741735378E+00 1.440383744011E+02 2.408457297196E+01 1.694584568233E+02 1.901499078943E+02 1.202319013524E+02 3.446139979818E+01 1.417071649493E+02 1.366415291512E+02 1.878509233580E+03
 1.769437422250E+02 -2.506214433604E+02 1.532880965829E+02 1.930811245551E+02 9.469245263146E+01 5.043383529178E+01 1.859934070247E+02 -1.083211610390E+02 -8.748074131003E+01 -1.312933713968E+02 1.966462341228E+02 3.219336731438E+01 -4.384822578294E+00 1.657655723875E+01 -7.296271354065E+01 1.329926659822E+03
 -9.114634316936E+01 1.862554736396E+01 1.328593553200E+02 9.741271086269E+01 1.342216079174E+02 -1.465117033605E+02 -2.186550260236E+02 1.621170103605E+02 3.739103611439E+02 -2.525202275479E+02 -2.888824959394E+02 7.972893376327E+01 1.596781697765E+02 2.352626941195E+01 -9.532329908047E+00 7.847848306325E+01 1.747360307366E+03
 1.181138690145E+02 8.608262063706E+01 2.468576864669E+02 1.355382757859E+02 1.589193537458E+02 9.447847559696E+01 -2.546827847424E+01 6.898450832111E+00 1.864716844685E+02 2.222316982020E+02 -4.485326216852E+01 -1.230192845549E+02 1.129840967611E+02 -1.115571837488E+02 -1.612441884789E+02 1.400079325376E+02 -2.651484247096E+01 1.509468514412E+03
 2.930338719243E+01 -3.232712113216E+01 1.508903043913E+02 -6.818734801537E+01 -1.799774669579E+02 -1.007502563285E+01 -2.652448613780E+02 1.662872924290E+02 7.171043377498E+01 -1.370586467409E+02 -1.658311608314E+02 -2.987855515206E+00 -2.051115317471E+02 -3.917933609430E+01 9.354648768508E+01 4.912501681981E+01 -1.316416781093E+02 -5.404039190770E+01 1.602124625348E+03
 1.369502149778E+02 -1.078079595915E+02 6.928931156209E+01 2.135281794327E+01 1.338117641328E+02 -2.571762137831E+01 1.189400845558E+02 2.904040717591E+02 -1.792163176963E+02 2.375770731518E+01 -1.603871961424E+02 -1.032802319916E+02 1.338458948625E+02 -3.034382784801E+01 3.664985470941E+01 9.932732198052E+01 -5.819370833800E+01 -1.104437456897E+02 9.642300556819E+01 1.816846261382E+03
 -5.160245278913E+00 3.211050794746E+01 6.808593076128E+01 1.274382883999E+02 2.163718323903E+02 1.114598216630E+02 4.203983619324E+01 3.342565604364E+01 8.843089769792E+00 -2.029678112713E+02 -1.434708368031E+02 1.967964226490E+02 -2.143191434258E+02 -4.064451134006E+00 -9.251111403679E+00 1.559847414242E+02 -4.009382192011E+01 -1.750998642137E+01 9.314770406518E+01 4.592330354266E+01 1.470585973025E+03
 2.364314837633E+01 -3.333439623455E+01 2.095159503288E+02 -2.081695712328E+01 3.132471162188E+02 2.548662998549E+01 1.696950234766E-01 4.022072216178E+01 -1.173333365970E+02 1.167652202712E+02 1.227965356505E+02 -7.835085959052E+01 5.687717408690E+01 -9.004441503593E+01 2.020303701683E+01 -1.017673115743E+02 6.745738887611E+01 -2.357295841721E+01 -8.635710410802E+01 -1.271646657506E+02 3.647143352884E+01 1.413728583429E+03
 1.066681782475E+01 -2.143678238151E+02 -3.724725253215E+02 -1.040390214222E+02 3.365807475980E+02 3.014218552792E+02 -3.102299032187E+01 2.948965084856E+01 7.460062451972E+01 -1.630107448961E+02 5.673769957165E+01 2.219586945345E+02 -1.464213063323E+02 -1.097423109725E+02 7.717712843583E+00 9.650394336474E+01 1.558832058807E+01 1.054752496946E+02 -1.574435282762E+01 1.659887936489E+02 -3.159669643293E+02 8.175185746973E+01 1.445107195461E+03
 9.524865893491E+01 1.061177442706E+02 2.899933164855E+01 2.368404718654E+01 1.287988535539E+01 1.301611341551E+02 9.123596265517E+01 1.778749036976E+02 8.494748965499E+01 -1.653132755743E+02 2.938653666800E+01 5.808383343961E+00 2.668819285976E+01 -1.359513556521E+02 9.280211691709E+01 -1.271580557671E+02 -5.714223954645E+01 1.649209642396E+02 8.153610829191E+01 8.654696414270E+01 2.493511844739E+02 4.047920260971E+01 1.341262744486E+01 1.192081240167E+03
 1.926776236941E+02 5.058753864093E+01 -1.424332674421E+02 -3.957705806851E+01 -1.602702692990E+02 -1.254956372259E+00 -8.229844584071E+01 -2.787526942986E+01 -4.089253426668E+00 1.481388379446E+02 9.828310736567E+01 -1.240348706597E+02 -4.100338608384E+01 -7.019736089777E+01 1.051738495518E+02 -4.699897573281E+01 9.967601305275E+01 2.425938896503E+01 -9.788871467372E+01 1.382989479467E+02 2.241225190684E+02 1.101189706512E+02 -1.548030261597E+01 -6.123394210484E+01 1.790541229498E+03
 7.143387591684E+01 1.743342390851E+02 -1.198767431266E+02 1.718243236120E+02 7.066654449788E+01 -3.205073184146E+01 -9.675881673318E+01 1.939266303437E+02 5.569650466964E+01 -1.115891408804E+02 3.586909097199E+01 1.604429217911E+02 1.810559004563E+02 3.684896390194E+01 -5.227996833076E+01 -3.794056275478E+02 -3.361145367676E+01 1.499608572282E+02 4.907294742469E+01 8.674544445876E+01 2.848285143057E+02 1.756051685742E+01 1.336203295273E+02 -1.909644793743E+02 -1.510935864057E+02 9.893291740105E+02
 5.986868852199E+01 1.860328490185E+02 1.108590355443E+02 -4.180898448695E+01 -5.061079955113E+01 5.092820969733E+01 -1.213752589666E+02 -1.372163225880E+02 1.358656131677E+02 2.281806534933E+01 5.752449367750E+01 9.378505369931E+01 -2.919094277461E+01 -1.158105561632E+01 3.416190999311E+01 -9.494202453691E+00 1.256717130012E+01 -1.533867759991E+02 -5.661090864667E+01 2.210531903726E+02 -2.094596869115E+02 9.817059926238E+01 -2.652472653230E+01 1.222830948742E+02 -1.444830756239E+02 -5.068359029664E+01 1.819653016121E+03
 -5.583741517387E+01 9.816731666796E+01 5.725095430650E+01 1.192280712561E+02 -1.884952514439E+02 1.420397669554E+02 -1.969990342761E+02 6.345132046853E+00 -1.422820248287E+02 2.033269372964E+02 -1.112390814975E+02 -3.935969821724E+01 -7.015380450072E+01 9.365070789896E+01 7.835872715867E+01 1.522731004673E+02 7.570706032725E+01 1.077835768312E+02 2.333827598531E+02 -1.561619951755E+02 -3.003411617810E+02 7.146137693608E+01 2.632143948148E+02 -2.088731643356E+01 1.741094619899E+02 -3.840952195162E+01 -4.153230366036E+01 1.355107826396E+03
 -1.784758435559E+01 5.245899158158E+00 -8.460615868541E+00 1.800852775929E+02 -8.595565081057E+01 1.001388289300E+02 -8.863014980742E+01 -2.772521836861E+01 -1.143668043738E+02 9.935196209921E+01 1.293970621930E+02 -1.058104855111E+02 -1.903139366337E+01 4.654326906971E+00 4.885237511878E+01 1.244940798341E+02 1.372644643172E+02 1.260606215729E+02 3.213945664052E+01 3.029378020331E+01 1.231530935280E+02 -4.266526577624E+01 -4.273052960814E+01 -3.563913573344E+02 -5.705616000086E+01 9.643655513733E+01 2.003125502873E+02 -3.220123057691E+01 1.684909975254E+03
 1.694736962629E+01 -1.200621053342E+02 2.294532222602E+02 8.290557078339E+01 5.494785643497E+01 1.578618440355E+00 -1.092988535557E+02 4.177322921788E+01 -1.153510414720E+02 7.542695601344E+01 -8.979853803901E+00 1.705083932763E+02 9.747405388197E+01 -1.764767961910E+01 -1.721006070630E+01 -7.199065419903E+01 -1.074736650392E+01 -1.913315746023E+02 -2.830053712772E+02 -9.524711238693E+01 1.054658604071E+02 -1.928701175015E+02 6.589655830454E+00 2.578354575542E+02 2.996761151319E+01 7.442100276491E+01 -1.817636976263E+01 1.706142897451E+02 2.843509637599E+01 1.667483512461E+03
 1.161535584310E+02 -3.299738201425E+01 1.220013097917E+02 -1.171012634245E+02 1.313019677398E+02 -3.916201837973E+01 1.789442927261E+02 1.717492944733E+01 1.609720409290E+02 -7.399719223791E+00 -2.169061258372E+01 -6.651133753520E+01 1.760887219073E+02 1.736901846301E+01 -6.718776490644E+01 -2.918965257152E+00 -3.105391318314E+01 1.227157630098E+00 2.460699742372E+02 -4.240574365012E+01 -3.461618017080E+01 2.355381927090E+02 1.968388803451E+02 -1.703546105214E+02 -7.718552624363E+01 3.163056591349E+01 3.302794023640E+01 -2.235700379072E+02 -2.333625937315E+01 2.681475063518E+02 9.746951970546E+02
 -1.298916789309E+02 -1.151231799589E+02 -4.356818507111E+00 1.205335362479E+02 1.839025455033E+02 -2.873364696096E+01 1.774943494108E+02 5.023552759645E+01 1.050232034012E+02 6.356105248005E+01 9.435416318002E+01 -1.120355239522E+02 -2.040015131001E+02 -1.594686843334E+02 -7.684606318792E-01 -4.770252022207E+01 9.523822307954E+01 -1.202984011963E+02 -6.698969645235E+01 -6.895749999873E+01 1.081969503434E+02 -1.840545384676E+02 -8.511615166879E+00 1.401275829770E+02 -1.669834930961E+02 -1.869015721231E+01 -3.022436024966E+00 2.374230372717E+02 2.198763883146E+02 9.694847154112E+00 -2.411727842328E+02 1.116836742063E+03
 -9.769498187863E+01 4.571049292131E+01 1.303699209386E+02 -3.188723060772E+01 5.064941604721E+01 7.116900527607E+01 -1.439053581708E+02 1.284160204943E+02 -4.204711945178E+01 -1.037002288851E+01 1.327519870014E+02 7.394552652698E+01 8.327233765958E+01 -3.053457386123E+01 -5.160941845426E+01 7.577452478763E+01 -7.302818444996E+00 1.642944402718E+01 5.158412533976E+01 -1.718970553288E+02 1.804430285198E+02 2.364365865503E+02 -1.264961700413E+01 -2.248739786144E+02 -7.306423281674E+01 1.057489471505E+02 1.222520584782E+02 -4.085840521310E+01 -1.777209102509E+02 -2.160142769841E+02 -7.349559179004E+01 -1.036183414516E+02 1.072858130502E+03
 2.027551395921E+02 3.105210552887E+02 -1.760448011567E+02 -5.924521185096E+01 1.548703128388E+02 -3.237683062558E+02 8.922315219808E+01 -8.888781187713E+01 -8.464678991937E+01 6.750421232373E+01 -1.547675403915E+01 5.741943389566E+01 1.034835726460E+02 -1.544892615883E+02 2.754631903615E+01 2.937563133036E+02 1.965815592468E+01 -8.154584659130E+01 6.357638844260E+01 -5.023409843834E+00 1.948424592997E+02 -1.008566674068E+02 -4.058338547880E+01 8.167420896788E+01 -1.650420662281E+02 3.476134773277E+00 7.605706735442E+01 3.776662259937E+02 -2.004834370007E+02 -1.372164509848E+02 4.709899796346E+01 1.875936553223E+02 -6.000847378378E+01 1.245616548861E+03
 1.472461203038E+01 -1.805975889120E+02 4.327113372512E+01 -1.163713151629E+02 -5.035032350993E+01 -3.386814444890E+00 -5.139226973632E+01 1.865703332790E+01 -5.947276283752E+00 8.873491452805E+01 1.105413311928E+02 -8.519118402549E+01 8.559769184983E+01 8.104478598750E+01 -2.240763269619E+01 8.072581991104E+01 9.792094068430E+01 -2.066375137454E+02 -2.648804579489E+01 -9.398420686189E+01 8.328812922929E+01 2.777828057924E+01 6.029563983389E+01 2.213604459157E+01 -3.172507087404E+01 2.876751291561E+01 -3.695422321862E+01 -7.297386815335E+00 4.276638326075E+01 -3.062653213123E+01 4.301830435535E+01 -2.507592328221E+02 -1.984313799089E+02 1.032475526635E+02 1.922032280894E+03
 -4.504275724552E+01 -1.212619793695E+02 -3.979845575697E+01 -2.130086831655E+02 -8.151010746836E+01 1.053794077442E+02 3.333835777360E+02 5.206126264484E+01 5.146098101320E+01 1.352664439044E+01 3.797231840010E+01 1.473923182677E+02 3.308970781918E+01 -4.676592666863E+01 -5.575089625651E+01 5.581975396919E+01 3.017699391843E+01 -8.927667490722E+00 4.975818832507E+00 1.010513827143E+01 -1.803306187166E+01 1.629593831204E+02 -1.563533794019E+02 9.545337275621E+01 9.192578948793E+00 -7.165529129360E+01 -2.277015323324E+01 6.528141141878E+01 1.092931860425E+02 -1.470208110411E+01 -1.646947830940E+02 -2.128003585290E+01 1.352350407155E+02 3.466821668495E+01 -1.208624289388E+01 1.896199877829E+03
 -1.824713443486E+02 1.364225749845E+02 5.405525466573E+01 1.398625283337E+02 9.215303621495E+01 2.149891978107E+01 1.209087630441E+02 3.072441564073E+01 -2.683544575123E+02 3.395956837727E+01 -4.959362136511E+01 1.290723834241E+02 2.140924397145E+02 -3.718323780228E+01 6.302634102722E+00 3.149677145688E+02 5.478860040875E+01 -1.110896573094E+02 1.279120840729E+02 -2.421099491155E+02 -2.060886695748E+01 -1.762752994513E+02 1.746645369951E+02 1.420089575004E+02 1.762644452330E+02 -1.770415549661E+02 6.348855593255E+01 -2.451793192855E+02 7.912493523527E+01 -7.768037103874E+01 2.118727727172E+01 -2.214097670854E+02 1.137311556916E+02 7.658509099253E+01 -3.175200382902E+01 -9.539561114228E+01 1.430067976885E+03
 1.384387424468E+02 1.645182092406E+02 1.359466591637E+02 -1.817251289233E+02 1.317106153973E+02 -3.000947404694E+01 -3.325658373425E+01 -6.600460231403E+01 -2.004091581799E+02 -1.644781910732E+02 -8.729847270869E+01 -5.404533797805E+01 -4.580562770149E+01 -3.104523251904E+01 8.531554675600E+01 1.961919321315E+01 -4.492131499825E+01 -1.366763607956E+02 -8.358681046276E+01 -1.061966430354E+02 3.004995042453E+00 6.273302138765E+00 2.017944840179E+02 9.483765710477E+01 1.406470088012E+02 1.044231578589E+02 -1.397121440121E+01 -5.916276816200E+01 1.762972975582E+02 -3.459438233542E+01 8.506156732913E+01 8.043883214731E+01 9.940095953515E+01 -3.075519763381E+01 -5.663879733383E+01 5.275017594628E+01 -1.249072768153E+01 1.802808852692E+03
 2.652740284657E+02 -9.333162629765E+01 -1.556990767069E+01 -8.883274558674E+01 -1.945080777478E+01 2.376284667160E+01 -1.113123777976E+02 -3.625424749609E+01 -5.034736675499E+01 -6.184189701083E+01 -3.534408600509E+01 -3.800266597344E+02 -1.612330633221E+02 3.407234641448E+01 2.872243309419E+02 -1.862125398117E+02 2.654160660841E+01 2.701850051083E+02 6.143172536008E+01 -9.175346048375E+01 2.785771513774E-01 -8.280148046597E+01 1.740693178892E+02 1.537489268660E+02 -1.117228546444E+02 2.386712291294E+02 -1.641484202847E+01 -6.112272574351E+01 1.238991052125E+02 2.056234965717E+02 3.211434975006E+01 -1.825031562288E+02 9.531386845669E+01 1.897162977105E+02 -1.885774582788E+01 1.878936826311E+02 2.209115456753E+02 -1.449384858791E+02 1.332136356536E+03
 -5.732230892024E+01 -7.406217641201E+01 -3.558829677553E+02 3.229962588387E+02 1.301107410405E+02 8.226097781470E+01 -3.143827026623E+01 3.800217040856E+01 3.593524222264E+01 2.534488465615E+02 -4.007942402631E+01 -6.482089830763E-01 -8.462816660557E+01 -1.955570108830E+01 -3.527775056254E+01 1.300163092489E+02 1.343418996311E+02 -1.482376593361E+01 3.059548178477E+02 -6.118897422679E+01 -8.772178813373E+01 1.340377214045E+01 -2.651894758461E+02 -4.153024675748E+00 6.270547568570E+01 -1.483771308531E+01 1.224704046926E+02 -6.792259999544E+01 -1.486391568799E+02 5.135295978483E+01 2.457612781846E+02 -5.944611822776E+01 -1.259595609215E+02 -1.376639207867E+02 -2.196720780438E+01 6.889945269772E+01 -1.221800263927E+02 1.721323092680E+02 7.773333575816E+01 1.667072518182E+03
 2.906950018381E+02 3.283842008015E+01 -7.626754305201E+00 1.792957674784E+02 1.010602109714E+02 1.545903098454E+02 -9.935835777628E+01 -1.368289460031E+02 -1.112151171181E+02 8.395593250108E+01 1.581263244392E+01 -9.643399320672E+01 1.331392647133E+02 3.173866782541E+01 2.844009232075E+01 -1.245583756431E+02 1.483512291672E+02 -3.008036224540E+02 1.897838861430E+02 2.756780677533E+01 -6.401790576776E+01 9.783037134590E+01 2.988965212594E+01 1.296476364792E+00 2.888837000533E+01 5.343033666890E+01 -1.113981460716E+02 -8.251751554393E+01 -6.989656749390E+01 -1.947979234975E+00 -5.811562839890E+01 3.813221630156E+02 2.055872928451E+02 -2.739386907137E+01 3.366724135822E+01 2.741025513915E+01 4.882192395766E+01 -9.467425633599E+01 3.780680412707E+01 -7.068531621436E+01 1.604484453391E+03
 6.538889181061E+01 -9.870264282100E+01 4.229053758842E+01 1.464082408640E+02 -4.304167373407E+01 -1.448451739973E+02 4.057295260895E+01 -1.283963802482E+02 5.146310163216E+01 -2.723514884148E+02 -1.554402216404E+02 8.527910746680E+01 1.369843196301E+02 5.395932975193E+00 4.955108956664E+01 -5.429973727825E+00 -1.539595686974E+02 9.707322975245E+01 -2.860948535601E+01 -3.267138407000E+01 -2.754131586274E+01 9.611422495436E+01 5.325323998577E+01 1.512976130007E+02 1.013238857358E+02 -2.768560876479E+01 8.692976064009E+01 5.853969937402E+01 2.289244018690E+00 -3.152381527588E+01 -2.361161731961E+02 1.536351970001E+02 2.212882525157E+02 -7.013108092658E+01 1.517523536203E+02 -1.289006567868E+02 -7.715822167284E+01 1.921277805274E+01 1.075030563406E+01 1.266771942220E+02 -4.558304687323E+01 1.814758966706E+03
 1.349143095749E+02 -2.415941024481E+01 -1.483138770155E+02 -9.871152054205E+01 -1.615948977521E+02 -2.758534391512E+01 1.326643277688E+02 -9.476223997000E+01 3.132602554148E+02 1.119747172995E+02 -9.386390251929E+01 -1.360022663771E+02 1.380607482328E+02 -1.324149428268E+01 -1.136334401014E+02 9.919398440596E+01 4.712677500344E+01 -2.368346428857E+02 3.515781420424E+01 1.278470506818E+02 1.300890718818E+02 9.035220518073E+01 2.709905248210E+01 -9.074660235203E+00 9.479196724790E+00 1.618188516005E+02 -5.321401300151E+01 3.076113599788E+02 5.187028900889E+01 8.046223567395E+01 -7.450595739037E+01 -1.854637889248E+01 3.493536185974E+02 -4.687954513305E+01 1.575721648615E+00 -1.156150446016E+02 -9.263511806402E+01 1.045200478721E+02 9.308876071297E+01 -3.376498538643E+01 -2.049169069076E+02 -1.827239719807E+02 1.393523278836E+03
 2.151049593095E+01 1.874530690521E+02 3.914597957717E+00 -3.077536128971E+02 4.179032979678E+01 -6.034608917973E+01 2.659260573144E+01 1.191804997456E+02 3.780407636197E+01 1.512790027672E+02 1.652754706649E+02 4.308329927256E+01 -6.663208996694E-01 1.285206112490E+02 -8.575300392916E+01 1.244674193723E+02 9.927034505100E+01 -4.795099343545E+00 1.300718787083E+02 5.826134495149E+01 -2.472881518673E+02 1.647174467581E+01 -2.549674664628E+01 3.045692564996E+02 -1.121052917365E+02 -3.550641525008E+02 -2.371952909326E+02 -2.011610847389E+02 8.409843715319E+01 1.399819097386E+02 -1.048471829091E+02 1.009453851108E+02 7.499156717533E+01 -2.630037888451E+02 -9.853880356082E+01 -1.064431708240E+02 1.464466402840E+02 -2.716864267149E+01 2.238341900816E+01 4.268787080976E+01 4.692827490778E+01 1.217786522290E+02 3.589031597563E+02 1.243059639334E+03
 -2.351038055662E+02 2.420184526971E+02 9.636745342431E+01 -7.339548356066E+01 1.125216126200E+02 2.051507924087E+02 -3.661130440303E+01 -8.514516314718E+01 3.679150081849E+02 8.333881969189E+01 7.554587718890E+01 -7.315338941854E+01 -4.883023303194E+01 -1.470504316039E+02 -1.173373027695E+02 -1.723053905864E+02 -2.767561500594E+02 -6.146459892525E+01 4.358701151758E+01 -1.247514286786E+01 1.784879089436E+02 8.228716132062E+01 1.851807088588E+01 4.110148836175E+01 1.082800871752E+02 -1.245347257271E+02 2.039823764195E+01 6.216882962160E+01 1.501427890596E+02 -1.787169909322E+01 1.564398307657E+02 1.080148078323E+02 -7.222156654295E+00 5.894835746194E+01 9.269795562207E+01 -5.881564494222E+01 1.927363868641E+02 -1.448979996947E+02 -4.222146098523E+00 6.964410288170E+01 5.165252874053E+01 2.583277506426E+01 1.318228919535E+02 -6.359046684258E+01 1.277727709948E+03
 2.888039804427E+01 -2.159661657995E+02 2.567230905475E+02 1.291745357662E+02 -1.112793516770E+02 -1.057007546843E+02 3.277044795666E+02 1.262362006355E+02 3.676807723077E+01 3.994791596839E+01 5.185159971064E+01 -7.451827751447E+01 6.305953140354E+01 1.626400805772E+02 -1.263519299521E+02 -9.346202545006E+01 -7.520283104228E+01 -3.741378102045E-01 7.966657333606E+01 -7.349672782830E+01 -1.111387059039E+02 -1.807453195025E+01 8.943284078370E+01 -4.627981296624E+01 2.729096565281E+01 5.630517669291E+01 2.831481014639E+01 1.060663324628E+02 -1.633622619032E+02 6.075530812243E+01 3.863875290965E+02 1.870373995921E+02 1.650831885954E+02 -1.165210529986E+02 -7.607512261353E+01 4.245991456601E+01 1.681242581673E+02 -2.341820993845E+00 -1.494408312914E+02 -6.757961937319E+01 1.182577555451E+02 2.330896236428E+01 5.990627640349E+01 -2.446697778073E+02 -7.408083108135E+01 1.020797630314E+03
 -7.930493127301E+01 2.804106707389E+02 3.027424099831E+02 -1.905141151867E+02 -3.650182604885E+01 8.389639519965E+01 7.841984204204E+01 -2.710665171769E+01 1.014924122417E+02 -2.201501377011E+02 4.672686674264E+01 -9.142068178522E+01 1.046670846352E+02 -2.026821708334E+01 -5.977770962519E+01 2.544197382912E+02 -6.477205143223E+01 -6.649990435976E+00 1.214853204367E+01 2.625888626403E+01 -4.762737706389E+01 2.709882511213E+01 1.032025689736E+02 -1.899613807661E+02 6.590065388362E+01 1.360577291071E+02 1.600402481387E+00 8.925724635654E+01 -5.830001052412E+01 1.914919955440E+02 1.239988584499E+02 1.879836853570E+02 -2.457307501400E+02 -2.708171440726E+01 -3.412280263673E+01 1.163424862058E+02 -5.164713289131E+01 -9.744706529029E+00 -1.019707238492E+02 7.390219069218E+01 5.028939905623E+01 2.754064762825E+01 -1.619532709391E+02 7.131489063306E+01 2.842319759267E+02 -1.124147595716E+02 1.240981299064E+03
 -6.601971777420E+01 2.004126529056E+02 -1.580313032767E+01 2.398038801124E+01 -2.282658859725E+02 -3.989298814313E+01 -2.052202163908E+01 -5.710690641566E+00 -5.740304436398E+01 -3.425553755762E+01 3.649837902969E+01 9.594036049628E+01 -1.283189369239E+02 1.277700943250E+01 -4.669996815105E+01 -1.171930972783E+02 1.421585768147E+02 1.280289922295E+02 -1.270104230888E+02 1.752737392966E+02 -2.503886043187E+01 1.607336768867E+00 4.085101488453E+01 1.992499947400E+02 -9.217579191748E+01 -2.432018079452E+02 -1.496802386100E+02 2.261061460928E+01 1.248381048524E+02 -7.486290588646E+01 1.692503397574E+02 -3.586448084166E+01 -7.655687184267E+01 1.128242219462E+02 6.443295062550E+01 3.563986407271E+01 -7.798943447323E+01 1.469448519129E+02 1.559771361938E+01 5.441708602255E+01 6.574709857128E+01 1.348729648153E+01 -9.335031443884E+01 -1.012263472065E+01 2.349302170045E+02 2.749229938116E+02 -2.445321858228E+02 1.665493695560E+03
 5.839154591927E+01 -1.654753573846E+01 5.413865017715E+01 2.328653628766E+02 1.444034955653E+02 1.197014728732E+02 1.404890279689E+02 1.685660918813E+02 6.622525052986E+01 1.205168251856E+02 -4.405419539721E+01 -1.233295606479E+01 1.067443971403E+02 1.064986545117E+02 -1.548413673859E+02 -2.908332291023E+02 7.956494001185E+00 -1.202473498295E+02 2.692822907886E+02 4.245928714920E-01 -9.535695837520E+01 2.042675797970E+02 -3.199968709561E+01 1.382178424007E+02 -4.947519131147E+01 -9.144106212002E+01 -9.324244343494E+01 9.292443522798E+01 1.782138294503E+02 7.609136499639E+00 7.267932394313E+01 9.552201647873E+01 -1.589005219346E+02 8.139953049555E+01 8.442516539655E+01 5.335452561298E+01 4.264894672670E+01 9.698193037752E+01 -1.420604684201E+02 -2.043779291957E+02 -2.820729232075E+02 6.741039075989E+01 -7.690953884919E+01 7.253572988775E+01 8.153689518347E+01 -5.168492142990E+01 -3.127615981538E+02 -2.431629353034E+02 1.309174516240E+03
 -3.122871755195E+02 2.215355826898E+01 -2.442215649078E+01 -1.686920860489E+02 4.627263782803E+01 -1.257885643061E+02 1.184652480257E+02 2.536191772018E+02 -4.071995057514E+01 1.672644550010E+02 9.102585952743E+00 2.249963962900E+00 -9.557748256265E+01 1.640919989950E+02 -9.734704344068E+01 -1.419551603718E+02 3.979187935555E+01 1.350164956466E+02 -6.759102709541E+00 5.993943603877E+01 7.176191216169E+01 -3.176328472111E+02 7.296373531634E+00 3.708473373805E+01 1.793213155182E+02 1.707416917578E+02 1.780158779670E+02 8.567842479919E+01 2.355106504742E+01 -6.329480546309E+00 -6.523521926976E+00 2.280327974079E+02 1.399418209963E+02 -2.321335980935E+01 2.207330277782E+02 5.598780602415E+01 1.834071153783E+02 -4.670115954174E+01 -6.527066460114E+00 6.739318180151E+01 -1.410044868451E+02 9.178453049065E+01 1.335720300464E+02 4.433206877429E+01 -5.821795362204E+01 4.668057988227E+02 -9.051785406096E+01 -1.133500288135E+02 -2.364186188681E+02 9.682358808010E+02
 -3.857225534290E+01 -5.297610969848E+00 -3.952576192452E+01 1.874105784121E+01 9.591934015537E+01 -1.487764416453E+02 -1.552890209049E+01 -1.412561497525E+02 3.110171416064E+02 1.271568778515E+01 2.258920996009E+01 -1.002056060341E+01 -7.404105378036E+00 -6.447616241274E+01 -2.851593915705E+01 -5.365804640224E+01 -7.172402677550E+00 7.517701247296E+01 2.066609350608E+02 2.794476156737E+01 -9.903901834589E+01 -4.623202858669E+02 3.388665678596E+01 -2.852845296402E+02 2.672506620251E+02 -2.443402732615E+01 4.945048862492E+01 -1.408334303896E+02 -4.139841824652E+01 1.841614214316E+02 1.862984246412E+01 -3.444709981128E+01 1.771010230765E+02 -2.551499032933E+00 -2.778908786389E+01 1.532005159296E+02 4.591898293700E+01 8.303136098587E+01 -7.766019642147E+00 -1.639137176004E+02 8.698531849627E+01 4.507810758764E+01 -1.615860318885E+02 -4.398977801991E+01 -5.079859663001E+00 -1.167456067683E+01 -1.520812604038E+01 7.634372759991E+01 3.397483001572E+02 -9.600327039257E+01 1.210626592237E+03
 1.282451581655E+02 -7.438830460111E+01 6.537637078529E+01 7.132176226774E+01 -2.515341749326E+02 1.215697146319E+02 1.754580314655E+02 9.581161919498E+01 -7.988834012661E+01 7.173517997758E+01 -6.136194695464E+00 1.421286768342E+01 -1.017393171123E+02 -1.666218415246E+02 6.037198579373E+01 -8.483585038797E+01 8.920325557190E+01 -1.784876268990E+02 -7.792311084701E+01 -1.534175716371E+02 1.198667517653E+02 8.139503666226E+01 2.049153809836E+01 -4.355061375499E+01 7.438472887262E+01 5.934338614706E+01 7.858642508878E+01 -1.078945785884E+02 -1.191687265612E+02 -2.250845548294E+02 -1.474912418203E+01 2.847735375848E+02 -1.085032960802E+02 5.435568052625E+01 -6.395478435062E+01 -1.799762042039E+02 1.067884482533E+02 -3.646874964816E+01 2.231446748353E+02 6.909408772869E+01 -2.525911793554E+02 -7.816024907590E+01 5.016239051095E+01 2.918054974321E+01 -2.224214963054E+02 1.406034913470E+02 3.076205954361E+02 1.346910776882E+02 1.976726974828E+02 -8.169726958864E+01 4.971284868823E+01 1.479491009041E+03
 -2.847434153678E+01 2.638644566754E+02 -1.639381769715E+02 -2.708019805084E+02 5.814450600194E+01 3.826085968442E+01 2.467653568847E+01 8.576403554991E+01 -1.959592551337E+02 1.627405053464E+02 -5.373486692036E+01 7.944972510763E+01 8.275119201168E+01 6.810459291598E+01 -3.172801608582E+01 -3.633669572323E+01 -2.013628991836E+01 1.187403152571E+02 1.242645100726E+02 4.591268383226E+01 1.142251130958E+02 5.816346060528E+01 1.327511975898E+02 -1.848304984161E+02 2.085818375071E+01 4.316692825283E+01 -9.036853047967E+01 -8.083848584514E+01 1.312825692343E+02 -2.099991635841E+01 1.932098889321E+02 6.904630141830E+01 1.215507351594E+02 8.202620841441E+01 1.666530390309E+02 6.889869144761E+01 -2.475033854765E+02 -1.448551305466E+02 3.573854579313E+00 -1.438994363506E+01 4.577925350488E+01 1.728339912244E+02 -1.794888365921E+02 3.326182228604E+02 -2.652279636098E+02 -6.577062242450E+01 2.416390441132E+02 3.161937514960E+01 -1.868064409521E+01 1.399394847082E+02 1.159024108080E+02 2.768056408063E+02 9.443910958588E+02
 -5.007680707007E+01 -2.114894859126E+02 8.633551428163E+01 -1.926579213026E+02 -7.341026487129E+01 4.684272431602E+02 -1.230605213349E+01 5.890394333038E+01 4.186206488716E+00 9.152282635300E+00 2.854977069181E+01 -1.626991014364E+01 7.385115097976E+00 -2.713618671004E+00 -2.244349021706E+01 8.354802614452E+01 3.612281704655E+01 1.181939757012E+02 -2.318638950802E+02 4.086393202463E+01 7.008554213629E+00 -5.846574957203E+01 -1.603726037294E+02 -1.240111042161E+02 7.414292621622E+01 -1.988459339403E+02 1.113394924298E+02 -7.008738902314E+01 -1.175618058715E+02 1.644888390274E+01 1.437449332462E+02 1.461365928875E+02 2.692773148879E+02 2.783972710363E+02 2.262148448735E+01 -2.095369109163E+02 -2.076386713980E+02 6.748135252692E+01 1.699904476924E+02 6.136285063457E+01 8.197936141612E+01 -9.626487179797E+01 -6.450012893236E+01 9.379769204306E+01 1.194009052232E+02 -7.274663609183E+01 -1.913087793528E+02 -3.588675405090E+01 1.248434790917E+02 7.574394940833E+01 1.216989247964E+02 -2.228930662703E+01 1.206587219316E+02 1.437139510612E+03