#BIOSYM hessian 1
@Type: Hessian Update
@Units
 distance: 	A
 energy: 	Kcal/Mol
#header
@natom 19

#label
L1      L2      L3      L4      L5      L6      L7      L8      L9      L10     L11     L12     L13     L14     L15     L16     L17     L18     L19

#element
Li Li Li Li Li Li Li Li Li Li Li Li Li Li Li Li Li Li Li

#matrix
57
 3.164134966966E+01
 -1.402719470253E+01 1.781001516744E+01
 7.897789938952E+00 -3.014847340110E+00 1.408333320083E+01
 -5.133504646106E-01 3.287728806594E+00 -2.263321267910E+00 1.714965462797E+01
 -1.270514014711E+00 1.779093243626E+00 -5.874321422742E-01 3.669271457653E-02 2.490831086337E+01
 -4.992395667101E-01 5.256365342184E-01 4.146263928039E-01 -8.740569836230E+00 -5.993896762605E+00 3.957507955238E+01
 -1.315640385413E+00 2.717348748456E-02 -2.658407296531E+00 1.399164628317E+00 1.985217651160E+00 5.858188937360E-01 2.789308553078E+01
 -1.295788726489E+00 6.292083644026E-01 -8.064684165611E-01 2.136412167173E+00 7.729462499644E-02 -1.966371004667E-01 -3.449373657666E+00 2.756038596642E+01
 2.068209870290E+00 1.691466744816E-02 -1.565224332134E+00 1.800856453799E-02 -1.313121489730E+00 2.062002811099E+00 1.408912734147E+00 5.580605256024E+00 3.328906512124E+01
 5.694272514009E-01 2.017017893402E-01 -7.819647006431E-03 -4.460667555206E-01 9.227104437387E-01 -6.262299677279E-01 -9.327884485796E-01 -1.271395773207E+00 -9.935496532716E-01 6.427510409372E+00
 -2.111037582033E+00 -4.782134159751E-01 8.269958648633E-01 1.131507960473E+00 1.586455102797E+00 7.532187493006E-01 -9.445027642134E-03 -1.751481875378E+00 -1.182716346883E+00 1.515405225022E+00 3.199657025006E+01
 -1.731213358715E+00 6.118494726186E-01 -4.733455575253E-01 2.285587125989E+00 -3.553297007793E-01 2.636568992531E-01 1.696555328083E+00 -1.963109231669E-01 4.524943629879E-01 1.386240238424E+00 -8.731471485724E+00 1.866943099487E+01
 7.395902229832E-01 -9.713292787941E-01 -4.513748093297E-01 -9.262524676380E-01 7.796164658649E-02 -1.691495378946E+00 -2.040662225575E+00 2.584056449709E+00 -2.379169722922E+00 -2.417425716887E+00 -3.164782732005E+00 -3.389077914544E-02 2.636357891972E+01
 -4.380057636518E-01 5.247245213734E-01 -9.205634581195E-01 -1.653994054981E+00 -8.465968154755E-01 6.311039782714E-01 2.047822782730E+00 -6.435018038615E+00 5.315782837154E+00 -5.220841072308E+00 -7.985738854504E+00 -5.676259278890E-01 4.701186605353E+00 2.245484418210E+01
 -1.067484441714E+00 1.287855616049E+00 -4.768201510852E-01 2.408957044273E+00 -2.827120423936E-01 -2.184830381958E+00 -3.038714806044E+00 4.276047337631E+00 -4.384357994423E+00 1.731780079981E-01 1.585739286073E-01 -6.567522909577E-01 5.208052935401E+00 -2.770497372139E+00 2.712520686916E+01
 -2.490770117951E+00 2.054162139295E+00 7.428015012612E-01 1.620777043622E+00 1.193546695723E+00 1.304204213613E+00 1.570181810021E-01 -1.545865748658E-02 -6.417756275065E-01 1.142846135780E+00 -1.712992847305E+00 -1.554061383775E+00 -4.674520544249E-01 7.819355227764E-01 1.257657943176E+00 1.654631446922E+01
 1.179017592922E+00 -6.771418604159E+00 -6.795925565369E-01 -8.890561144919E-01 9.265537592679E-01 -1.405974571462E+00 -2.062206323267E+00 2.218287483190E-01 7.421515806578E-01 -2.262696677123E-01 -4.993918545158E-01 -2.286121114052E+00 -2.226016534770E-02 1.493500824069E+00 -1.193431896637E+00 6.990964971732E+00 2.374588882264E+01
 1.713500632497E+00 -4.377303196194E-01 -1.627799543615E+00 -5.865642275176E-01 -6.642597707771E-02 -9.849714361495E-01 -2.746406548580E-01 -2.578168619194E-01 -4.629250736298E-01 -1.221099300407E-01 -1.036614640883E-01 -1.137262166579E+00 -5.034283140464E-01 5.418569815342E-01 8.385271981753E-01 8.650541438750E+00 1.042922042563E+01 1.839838877213E+01
 -6.089546354761E-01 -1.392893271552E+00 4.394745275331E-01 -1.881422399960E+00 1.717680930104E+00 -1.388626855077E+00 -9.570712676526E-01 -1.244224978933E+00 2.413783063898E-01 -7.069792836056E-01 8.026605249218E-01 8.744578199042E-01 4.538995037876E-01 7.662209716070E-01 -4.419306050657E-01 -4.757072357250E+00 -2.065288051199E+00 -1.331932314511E-01 2.562736053793E+01
 2.057312403994E+00 -2.764888434692E+00 1.263585352627E+00 -1.259124003414E+00 -1.254953701345E+01 2.176225140946E+00 2.075100971072E+00 1.479473148384E-01 9.863077909805E-01 -8.268177363126E-01 1.336763450679E+00 1.590980965802E+00 1.461058190230E+00 -3.761157458680E-02 -1.887608408561E+00 -3.411821083780E+00 -4.424464937096E+00 3.251140397656E-01 5.934234382052E+00 4.295242226776E+01
 2.339346197007E+00 -1.203316904424E+00 1.146304964320E-01 -1.226009546425E+00 3.439479931089E+00 -1.663700813750E+00 7.367325634649E-01 8.897739990644E-02 -5.632213214260E-01 1.140542873757E+00 3.812348638254E+00 -1.175632946384E+00 -6.911646673582E-01 -9.213826906066E-01 -1.166664387387E+00 -2.914039613370E+00 -2.853467153069E+00 -2.265404879718E+00 -4.989346890185E-01 6.015756601113E+00 2.985570004534E+01
 1.979667429363E+00 -1.365905527672E+00 9.919994078592E-01 1.111972575715E-01 -1.699516586279E+00 1.218832903482E+00 -1.034843499267E-01 1.682418335814E+00 -9.180278245694E-01 -3.337361591878E+00 -2.509417595092E-01 3.797084280036E-01 -1.335787008032E+00 6.432848128456E-02 -1.592363391367E-01 -2.880433315688E+00 -4.939383323975E-01 -8.885434286780E-01 -1.423628387036E+00 4.423390143919E+00 -2.356581832692E+00 2.804285266396E+01
 -3.594866523352E+00 -2.516876503093E-01 1.286382044183E-01 6.720164466175E-02 8.967994340648E-01 -2.120185501597E+00 1.042709067545E+00 1.885682335173E+00 1.866855352741E+00 1.310937365838E+00 7.615940789783E-01 2.894334732974E+00 1.334938612273E+00 -3.530528446232E+00 -1.884540286444E+00 -3.384645899581E+00 -4.065759122698E+00 -3.060888964494E+00 3.743194268614E+00 3.417769913079E-01 1.226474010039E+00 -4.959166567219E+00 3.737323102494E+01
 3.300590655458E+00 -9.614740724630E-01 3.432913999609E-01 -1.398400951649E+00 -1.706588241455E+00 3.324565532156E+00 -1.730495047832E+00 -9.526536048493E-01 1.115089453860E+00 1.144969307226E+00 -8.254128825067E-01 -3.785099837039E+00 -8.759842334260E-01 -4.118709106648E+00 -8.503467223089E+00 5.636731047177E-01 9.308622294930E-01 -3.557420079231E-02 -3.436997859890E+00 3.525397063084E+00 -6.290731662863E+00 5.751822445069E+00 -4.344745203159E+00 2.565384065988E+01
 6.400342775559E-01 -1.668279948426E+00 -9.098676837137E-01 -2.906137103262E+00 -5.722340718220E-01 -2.093180716077E+00 1.505940683605E+00 -8.316995525924E-01 2.089706601899E+00 2.171919195981E-01 8.092192939021E-01 7.864788534860E-01 2.723601239839E+00 1.092717277132E+00 -1.505343247916E+00 -8.304403833716E-01 -9.664920895970E-01 -4.896710696812E-01 9.547173945477E-01 2.542379276499E+00 1.293482150219E+00 -8.412833403067E-02 3.490710305508E+00 -1.174152340054E+00 2.426208163381E+01
 1.624760953374E+00 5.143374116893E-01 7.007658660287E-01 -1.322922873761E+00 -4.564533385532E+00 -2.174855920859E+00 -1.693705541043E+00 2.430123838042E-01 2.090326088317E+00 -6.325292393374E-01 5.189338643945E-01 -3.354316298000E-01 -9.072001247529E-01 -9.707273996535E-03 -2.232952199225E+00 9.820349123803E-01 -1.207767594003E-01 2.735953188171E-01 -4.047532134480E+00 -2.424287043128E+00 7.616903760554E-01 -1.511731753928E+00 4.372024035151E+00 2.812536404166E-01 9.878455555330E+00 4.187180608785E+01
 1.793305440820E-01 -1.114793210787E+00 3.578388738367E-01 -2.324937943582E+00 -3.938200838736E+00 -3.498733157337E+00 1.418139602574E+00 8.930102537920E-01 -5.049608516375E+00 7.699238355216E-01 -8.159575444814E-01 -1.156225449787E+00 -4.805583727473E-01 2.562293465093E-01 5.967986253917E-01 1.513023204602E+00 1.356809922890E+00 5.237616319771E-01 -1.779415690884E+00 -1.746823570987E-02 -8.179949956059E-01 1.271307693305E-01 -3.181190790110E+00 2.942160814594E-01 -1.048653740622E-01 -6.192805513609E+00 1.845960340994E+01
 -5.788983791848E-01 4.236087356211E-01 -1.197269050816E+00 7.942698006876E-02 -9.835375175237E-01 2.316978122412E-01 -2.685576925670E+00 7.171635993133E-01 2.377119812590E+00 -1.192810235734E+00 2.074324905403E+00 3.090292240931E-01 -7.563020605069E+00 6.834664647513E-01 1.868796701724E+00 -7.753652983192E-01 8.339780511697E-01 -1.144664785983E-01 1.133602056246E+00 -1.592314522804E+00 -8.358157630677E-01 -2.855159357022E-01 -7.768193447208E-01 -4.945996752777E-02 -5.735455574485E-01 -7.265728969177E-01 -3.624754458775E-01 1.562942567056E+01
 2.475932997475E+00 1.287995080389E-01 1.006618549139E+00 -1.248717083422E+00 -1.108291906659E-01 -6.841228669021E-01 8.486764287855E-02 -1.502053704695E+00 -1.063473041709E+00 2.552412359727E+00 -5.249542324997E+00 -9.357657252891E-01 3.531995904189E-01 -1.878565320040E+00 -8.917054725424E-01 1.508958835084E+00 4.695203783078E-01 -5.640854077621E-01 -7.556498009448E-01 -7.518429722819E-01 -4.231865456191E-02 -9.436632323272E-01 1.212356022891E+00 -1.247721510706E-01 -9.683780986329E-01 -5.550954913294E-01 8.830960889654E-01 -7.331308177854E+00 1.174490349343E+01
 1.084568180412E+00 1.737756272442E+00 -8.728962143844E-01 1.653229741444E+00 -4.822562748605E-01 -7.870629230746E-01 1.263318381008E+00 4.097439858178E-01 -3.898229486870E+00 -5.359550213367E-01 -4.276044210445E-01 -8.405656892459E-01 1.542964057240E+00 -1.119981029226E+00 2.038973621831E-01 8.273670367229E-01 -8.626491784510E-01 1.049104311523E+00 -2.082122220953E+00 -1.730560065958E+00 3.734517503123E-01 9.846173484576E-01 4.296982670150E-01 -1.243089768647E+00 -1.028575441556E+00 1.704558023706E+00 -2.768379920249E+00 -1.016427923912E+01 2.269110236291E+00 3.349381296659E+01
 -4.318153813539E+00 1.402612496537E+00 -2.681517662866E+00 1.334083351424E+00 4.591938066318E-01 3.322795695188E-01 3.275656743409E+00 -5.407893870107E-01 1.141780372736E-01 1.288481569133E+00 -1.068338936229E+00 -9.263310239336E-02 -1.020537293421E+00 -7.072213946351E-02 -2.502175331898E+00 -3.064032764156E+00 -9.307140396662E-01 1.319772152584E+00 3.170064563996E-01 3.066806316251E-01 -1.227894081601E+00 -1.066690988629E+00 2.804753164480E-01 3.228070608031E+00 8.723650231001E-01 3.679717141186E-01 -9.653214704804E-01 -6.158660554734E-01 1.107292607528E-01 6.010291478033E-01 2.927059458593E+01
 -1.699771196542E-01 -5.662867682133E+00 3.682887420923E+00 -7.243373257353E-01 7.249347560999E-01 -9.820011421857E-01 -2.392907810811E+00 -2.537134404519E+00 -1.330026068468E+00 -2.601049240582E+00 2.908260552638E+00 -5.067801609284E-01 -3.709832727100E-02 -1.476217061696E+00 -7.140370227696E-01 -1.743934299900E+00 -7.380400966147E-01 -1.283156732795E+00 2.713247388584E+00 2.376241818648E+00 1.139331978477E+00 2.290250473893E+00 1.712485115097E+00 -2.938440710554E-01 1.365097232068E+00 -1.258772696592E+00 4.638834529431E-02 6.129010480872E-01 -1.541805215470E+00 -2.780837578137E-01 1.071208676679E+01 2.944120838865E+01
 -3.504689639147E+00 3.465412124111E+00 -6.234309747917E+00 2.831042585151E-01 9.082958367262E-01 1.603621575156E+00 1.044116494078E+00 -2.011144150481E+00 7.783413734459E-01 2.015301185092E+00 -3.183752168207E+00 1.069540787458E+00 -1.575473588541E+00 1.693720980625E-01 -3.330004945665E-01 4.201378264394E-01 -2.488170817757E+00 -7.808744228639E+00 -8.636701925897E-01 -1.649643876494E+00 2.078786455580E-01 2.758237781234E-01 -3.244398365561E+00 8.963305148219E-01 -6.354712063352E-01 -2.468442268132E+00 9.848259560308E-01 3.021751750541E+00 1.416516759171E+00 1.305073368954E+00 -5.165061841784E+00 -1.210574364533E+00 1.910874225331E+01
 -2.882566910968E+00 -5.675317274291E-01 -1.497820992623E+00 -1.224350993823E+00 -3.825543693648E-01 1.449532013990E+00 -1.072076209701E+01 -1.228143989369E-01 -4.492459952981E+00 1.037904446006E+00 1.491412453162E+00 -1.193576333471E+00 5.510361033836E-01 -2.765227290711E-01 1.052092927614E+00 1.511074979810E+00 -3.492126490101E-01 -2.333994273216E+00 -1.808767957106E-01 -5.699716353014E-01 4.074425324558E-01 5.299238613416E-01 -7.465386854570E-01 1.402556781650E+00 -6.706883202291E-01 -1.848094887475E+00 2.500806872638E+00 -2.172292424650E+00 1.697265165409E+00 -4.354445410000E+00 -5.115356173406E+00 -4.371530383243E+00 1.064301703399E+00 2.703940302766E+01
 3.122950211565E-01 -1.732564239163E+00 1.752638961567E-01 -2.490505362131E+00 -8.659040511226E-01 -2.805511623863E-01 -2.419824848543E+00 -1.056145943647E+00 -8.370524729776E-01 9.243942901835E-01 -1.811007169422E+00 3.490459813264E-01 1.750778596825E+00 2.370172420130E+00 -1.853512900693E-01 1.678614088445E+00 7.567310493023E-01 -8.191042496124E-02 8.061925983275E-02 -8.120305325391E-01 -3.139764836139E-01 -1.761844076080E+00 5.790722715118E-01 -4.339431655040E-02 8.586967523368E-02 7.609105117306E-02 9.490135306995E-01 6.744026316679E-01 -2.594444014209E+00 2.448869843969E+00 -5.485229198536E+00 -1.409064470383E+01 -2.704056548297E+00 2.909419755290E+00 3.151041938517E+01
 -5.166954564083E+00 -8.345473910295E-02 -6.071401277482E+00 -1.789753918711E+00 -4.616426049232E-01 2.552044513276E+00 2.997634329330E-01 -1.309633622892E+00 -1.604954663542E+00 -5.761920307179E-02 -5.634304818697E-01 -4.693705252323E-01 9.302601807705E-01 5.260516034649E-01 -4.520527491873E-01 2.403829729344E+00 1.541227995162E-01 -1.082881431693E+00 -2.783890270413E-01 1.904309925893E+00 2.322500453170E-01 -1.614816652035E+00 1.588818184695E+00 3.683486429409E-01 -5.328860005652E-02 -1.568807324300E+00 1.891872710606E+00 -3.039330352112E+00 3.640471402947E+00 -7.833076121788E+00 1.402661752066E+00 -2.067373924385E+00 -1.070399786628E+00 9.217712705320E-01 -1.447806334341E-01 3.264722901561E+01
 -1.402896790853E+00 2.401631019240E+00 -1.605127652676E-01 -8.949370136862E-01 2.062261725202E+00 1.488100938370E-01 -3.621640000198E-01 -1.466648799985E+00 3.344333637285E-01 -1.307728363731E+00 8.651270380924E-01 -1.235357167515E-01 -7.146328804825E-01 -4.188881392936E-01 1.126282625885E-01 -3.442626178453E+00 2.720852250838E+00 -2.906708596871E+00 -4.366745125645E+00 -7.089841381661E+00 3.174483292514E+00 -8.423509613656E+00 -1.843543710879E+00 -4.984231394655E+00 -7.656312131111E-02 1.172406811969E+00 -1.309114397744E+00 3.438673692978E-01 -6.515316318371E-02 -1.093616946312E-01 -2.502407893523E+00 2.442376411623E+00 1.871461144272E+00 -7.565261744973E-01 -2.751331372061E-01 7.974257737050E-01 2.313750263547E+01
 -3.118548203801E-01 4.057012716672E-02 -8.341257679409E-01 1.278741796009E-01 -1.562902123533E+00 2.166078554811E+00 -1.388992266204E+00 -9.332884785961E-01 -2.106780457791E+00 1.734609252022E+00 -3.039826739465E+00 -1.886108627164E+00 1.317425412576E+00 2.092876438186E+00 2.254425386507E+00 2.976914508903E+00 1.606360202551E-01 6.473689929795E-01 -3.538786246183E+00 -8.445316725193E+00 1.586706568669E+00 -4.959592458951E+00 -3.573396089117E+00 1.132973851668E+00 -1.118783580005E+00 -4.668468679051E-01 3.432705824771E-01 -1.070260805262E+00 1.274686339066E+00 -2.893254749174E-01 1.838507335881E+00 -2.893197645816E+00 2.628288455274E+00 1.944030291362E+00 3.893952962070E-01 4.390404864596E-01 2.428844243942E+00 2.948196109795E+01
 -1.524423527361E+00 8.609623985457E-01 2.606565568203E-01 1.329956109090E+00 1.018940611847E+00 -2.226339848800E+00 5.738111581618E-02 -6.194170474085E-01 1.368629492267E+00 -3.513079667878E+00 1.369350699109E+00 -6.910761088853E+00 5.437813939972E-01 -1.582024371913E-01 5.131951742728E-01 -2.644977554896E+00 2.200670290621E+00 -3.287935096601E+00 5.268444003335E+00 4.066256543545E+00 -9.904661723554E+00 -1.507660055469E+00 -1.373221788238E+00 -1.942906644893E+00 1.726088907239E-01 -1.365666945176E+00 -1.825888587201E-01 5.716274659820E-01 -4.880342885502E-01 1.257230136839E+00 3.027644685818E+00 -3.618303620326E-01 -1.617550770189E+00 -2.045237235236E+00 -1.013967042705E+00 9.303626378928E-01 2.065698022331E+00 1.601964609406E+00 3.022420602897E+01
 2.116395423475E+00 -2.117902208133E-01 2.193082786813E+00 -2.108211742924E+00 -7.944835563321E-01 1.864137364924E+00 -3.737174083689E+00 -1.855608420140E+00 1.358870928553E-02 -1.218272553723E+00 2.748089449845E+00 -3.487203096660E+00 -8.330107231852E+00 1.662752868285E+00 -1.002214659448E+01 2.393460045757E+00 3.870849655463E+00 2.265681634414E+00 4.381511678198E-01 -3.291113203737E-01 -9.493197141464E-01 -4.474845850378E+00 8.883313505411E-01 2.579115841464E+00 -7.684447234378E-01 3.897160124795E+00 1.506855852315E+00 -2.646155526014E+00 2.172941132985E+00 8.370835971203E+00 -1.192806706636E+01 -2.902062701506E+00 -3.668526246078E+00 -2.202456202524E+00 6.070868367256E+00 -7.108006355927E-01 -8.190239863384E-01 -3.075703461527E+00 -5.410253305079E-01 4.094934038018E+01
 1.598966075692E+00 -7.704987992140E-01 -7.253550506203E-01 -1.312464034369E+00 -1.692379443775E+00 2.523672509075E+00 1.864331649809E+00 -4.664173431256E+00 3.062875285440E+00 3.180378497591E+00 -1.468474499060E+01 9.308094486983E+00 -4.064951920276E+00 5.086648848462E-01 -2.662000226037E+00 1.546959490559E-01 2.253817170594E+00 1.692935993761E+00 -3.358026218607E+00 -1.211162391892E+00 -3.241761361204E+00 3.284085239753E+00 -8.413749702840E+00 3.542544703056E+00 -4.536803219889E-01 -2.241310227091E+00 1.230236344277E+00 3.135641779225E+00 -2.805467676825E+00 -8.939610712719E+00 -3.420444656387E+00 -2.783749137144E+00 2.276301564975E+00 4.527511790411E+00 -7.098802136214E+00 4.195859519291E-01 -1.275171241123E-02 -1.362218794859E+01 -9.659896252488E+00 -3.909566718693E+00 5.028839626841E+01
 1.968955713242E+00 -2.112039706734E+00 1.651307790898E+00 -2.829527438829E+00 1.400541089278E+00 1.225798954478E+00 -1.650755806368E+00 8.461288829947E-01 1.374449238066E+00 -2.324409524028E+00 8.278735344939E+00 -7.140074113542E+00 -7.696632819317E+00 9.269584841291E-02 -9.882230339016E+00 -3.864970097296E-01 3.648390843348E+00 -5.308404304990E-01 7.530228279673E-02 1.742698663711E-01 1.607354887921E+00 2.657744615488E+00 6.619777444765E-01 1.989466296874E+00 7.751388957403E-02 5.198140324802E+00 2.985317289509E-01 8.025120176468E+00 -5.424558684844E+00 -2.451762825714E+01 -4.381301670375E+00 6.819815005722E-01 5.558252968870E-01 -2.866400020458E-01 -1.241324623013E+00 -6.764833673748E-01 5.129824233448E-01 -1.112053118004E+01 -6.903913124957E+00 6.056673896270E+00 -3.308821061682E+00 7.433463013056E+01
 1.201896044552E+00 1.192796428722E+00 1.507111388855E+00 1.810529427163E+00 -1.168073016611E+00 6.154156284679E-01 -6.936923505661E+00 2.928439685366E+00 1.769590358206E+00 -8.327730231296E-01 -2.039877778485E+00 -3.075573492519E-01 -5.897067210108E+00 -2.564623991380E+00 3.632729942799E+00 7.497977745513E-01 -3.914740790050E-01 2.817616936932E-01 -2.361180444059E+00 -1.803464402946E+00 3.441290614920E-01 -1.327208935408E+00 -6.553947001311E+00 1.574885146549E+00 -6.978581075988E+00 3.675429804066E+00 -1.997899974191E+00 5.901977596344E-01 -2.220479359884E-01 1.826741602022E+00 -1.249787548357E+00 -1.256697630428E+00 -6.633783284804E-01 -3.400662604765E-01 -1.971650798122E+00 -2.452046776842E+00 -9.436302121327E-01 -1.454224954239E-01 -6.434371047192E-01 3.464780606747E+00 5.247009360574E+00 -2.658826501609E+00 3.218694618619E+01
 1.282190896690E+00 -6.651980235578E-01 3.435980458923E-01 -2.637718940416E-01 9.422287526037E-01 3.680769500011E-01 4.648361923236E+00 -3.673343217218E+00 -8.368168788926E-01 -2.044350331011E-01 -2.386294548207E+00 -8.486942464753E-01 -1.447148985441E+00 -2.026454100567E+00 3.037521440887E+00 2.027888016359E+00 1.568037828986E+00 8.080272808621E-01 -1.207377179646E+00 1.631817146696E+00 9.421542383517E-03 -1.780692721683E+00 -1.177541955922E+01 9.307728803023E-01 3.153233890117E+00 -9.909831013675E+00 8.163839054793E+00 -6.260203212445E-01 3.987050362647E-01 -2.442809803626E+00 -4.378957476825E-01 4.980259453881E-01 2.436232092762E+00 1.031378103481E+00 -1.472827070928E+00 1.016058279446E+00 -1.570138455192E+00 -6.080320673886E-02 -1.089900432205E-01 9.962036457066E-01 7.409534473038E+00 -2.429141480650E+00 2.190597126627E+00 2.357700273460E+01
 -1.445090078729E+00 4.247122710784E-01 -6.366685805902E-01 -2.672775137774E+00 7.238966807119E-01 3.815274609774E-01 3.148950762078E+00 -5.453277935221E-01 -3.812510830256E-01 -3.777576308739E-01 8.259699639417E-01 4.938819513258E-01 3.529003819926E+00 5.612337870381E+00 -1.036601676776E+01 -9.318775785645E-01 3.837778709136E-01 -1.131482439750E+00 -5.064883833703E-01 -1.119167550628E+00 5.836097233321E-01 -1.911036550672E+00 1.782673614219E+00 -7.933145603044E-01 5.108287868955E-01 7.627235107766E+00 -6.973328494021E+00 1.358865871355E+00 -1.062511124206E+00 -1.042294343527E+00 8.493881329568E-01 -1.783213128228E+00 -2.522194516310E-01 -2.819865691620E-01 1.307934829379E+00 2.024813701414E-01 1.515857006862E+00 -1.370879061459E+00 -1.396970656744E+00 1.258973469396E-01 7.539771526209E-01 3.825977753838E+00 4.459326094310E+00 -6.436470648967E+00 3.343704298936E+01
 6.917913584634E-01 6.196825132433E-01 -1.286225560136E-02 -2.525370525119E+00 2.775528778078E-01 2.956902427571E-01 -6.722526098671E-02 8.765331218780E-01 8.266733143197E-01 2.957725352896E-01 3.872725347548E-01 -8.403629062206E-01 -2.801052920269E-01 -1.412967526809E-01 -3.231312103275E-02 9.023425338387E-01 1.042332345395E+00 3.532849506611E-01 -6.359180668321E+00 -1.439023111409E+00 -9.441632989947E-01 -2.884849969707E+00 -8.875553253143E-01 -1.690924262332E-01 -2.700373035968E+00 1.549522759076E+00 -9.799251416589E-02 1.234629139071E-01 4.602735049659E-01 -5.305906965977E-01 -1.848100643281E+00 -1.136166133996E+00 9.472021871058E-01 -6.341308926811E-01 5.830935109986E-01 -4.338582147419E-01 2.048389418249E+00 -1.639112352465E+00 1.466472609855E+00 -1.051399824969E-01 -8.071685790490E-01 3.166935923843E-01 4.546766945545E-01 -9.527940097978E-01 1.398799749005E-01 3.024379373870E+01
 -6.684969202460E-01 -6.668215335340E-02 -9.007944630183E-01 2.772678839650E+00 -1.173436161858E+00 8.334135371774E-01 5.798330420107E-01 3.398531356786E-01 1.029152907994E+00 3.088587053591E-01 -1.740563839875E-01 1.698795011380E+00 -1.335275638781E-01 -5.694335880682E-01 4.958288165747E-01 1.289151010938E-01 -7.399229036493E-01 -4.589597282769E-01 -4.059248051624E+00 -2.188524990515E+00 5.565254442596E-01 2.817567787637E-01 -2.021018461324E+00 1.502497021253E+00 1.286194715007E+00 -5.581281971089E+00 -2.329646886944E+00 1.067391398210E+00 -1.267482376851E-01 1.491270280947E+00 8.441666209905E-01 -2.244457047334E-01 -3.388888843328E-01 -5.134221497061E-03 5.772131674053E-01 -7.335952428187E-01 -8.875503497701E-01 7.145956416846E-01 -1.313061504938E+00 -1.761091616250E+00 1.114809072303E+00 -2.812259530044E+00 -1.761007047352E-01 -1.116391252731E+00 -1.876044149866E+00 -4.441413457257E+00 1.284956674408E+01
 1.721405370242E-01 -9.276446807126E-01 8.710865554245E-01 -2.549091048463E+00 2.401073726745E+00 -2.458096296625E+00 -7.590390410840E-01 2.873766596554E-01 -8.395622869919E-01 2.049635157835E-01 -5.742988931061E-01 -2.230672511998E-01 3.599390679937E-01 -7.430272745091E-01 -3.257224363825E-01 5.748027013229E-03 7.614964058443E-01 -6.309895347358E-02 1.516002859443E-01 6.579786854458E-01 1.648591855011E-01 3.386321230461E+00 7.224521016338E-01 -2.254156230924E+00 5.678539572392E-01 -2.645164510760E+00 2.222681340745E-01 3.630885314136E-01 3.302270419639E-01 7.957617085791E-01 4.089868274303E-01 1.787285109818E+00 -7.723242475439E-01 8.167353364538E-01 -7.222209398835E-01 3.395413480726E-01 -1.102970916708E+00 -8.630887893153E-01 1.047684446210E-01 -3.701306827962E-01 1.892709599417E+00 -1.166095394810E+00 -3.640736831121E-01 5.761775738197E-02 -9.972063119180E+00 -1.176703434315E+01 3.694166406388E+00 2.442169534661E+01
 -1.537939585484E+00 -1.322171151523E-01 1.646799045937E+00 -5.674307737546E+00 2.949438817746E+00 6.334022420567E+00 -4.088207977096E+00 -7.329409203671E-02 -2.715405489838E+00 -3.568742950953E-03 -2.289481552102E+00 -3.988267329106E-01 -1.414720207685E+00 -4.402815005907E-01 4.891796671179E-02 1.964911126184E-01 1.413975984661E+00 7.983761118495E-02 6.917292303469E-01 1.796271753975E+00 -3.037141014242E-02 1.085805781095E+00 -2.836335087278E-01 1.351421624923E+00 -9.105162720857E+00 -2.437796629419E-01 -2.347903500532E-01 2.537869797576E-01 2.909704377532E-01 -6.418756768122E-01 2.370156182387E-01 -1.139894044958E+00 -7.129573584881E-01 -4.407035464316E+00 -1.717926377169E+00 6.608406145922E+00 -3.996017580116E-01 7.736569522840E-01 -6.224899636522E-02 1.918085649572E+00 1.966757410057E+00 4.443546209309E+00 2.326973626456E+00 4.154614324425E-01 -1.013871117873E+00 -9.921762183685E-01 -6.659651737312E-01 1.067528272519E+00 2.543650233857E+01
 7.230218325572E-02 -2.793315427330E+00 -6.144629958523E-01 6.122002314485E-01 -2.964688532123E+00 -2.869666317015E+00 6.328472662170E-01 -3.975252045500E+00 -2.280669974272E+00 8.098231255677E-01 -1.986884646795E+00 6.685012116422E-01 -4.751295751520E-01 -1.735284954002E+00 1.826844644928E-01 5.308243114647E-01 5.327122310287E+00 5.161520393279E-02 2.234750365669E+00 6.083256452567E-01 4.852392863755E-01 2.930280331713E-01 -4.629368806133E+00 -3.379936268613E-02 -6.141451398291E-01 -2.782144207466E+00 3.393180735603E+00 2.786662549899E-01 1.240890117394E+00 4.778454675269E-01 -1.227646177684E+00 -2.011916825247E+00 1.908719615384E+00 -2.562740689577E+00 -3.184966821090E+00 6.278258040423E+00 1.013239803331E+00 2.441295737318E+00 1.453114892173E+00 -1.628623645947E-01 8.225357737956E+00 -1.611170568698E+00 -7.509380224310E-01 2.542386168613E+00 -1.363099170290E+00 -3.841434743629E-02 -1.647823640437E+00 -1.006930636339E+00 -9.406236224252E-01 2.969482605362E+01
 -2.749214591602E-01 -7.883579348875E-01 -1.483029541719E+00 5.920063871429E+00 -3.979108775564E+00 -1.086413142067E+01 -3.635836011964E+00 7.253092220131E-01 -5.909680391015E+00 -3.504590483112E-01 -2.813807320184E-02 5.891058721789E-01 1.173612467563E+00 9.613774887816E-01 9.125912351675E-01 -1.032497898242E+00 2.116802371449E+00 8.236023837021E-01 2.026421964442E+00 -8.598625998520E-01 1.871371756211E-01 1.499507342202E+00 -1.318416094034E+00 -1.286851493607E+00 5.182019106438E-01 -1.617477716552E+00 -8.423669361307E-01 -1.183115697293E-01 -5.175975926152E-02 8.514713547586E-01 -3.690398014844E-01 -4.261139221999E-01 7.797549119468E-01 6.823681879798E+00 3.474595326982E+00 -1.221959714544E+01 -1.569185807898E+00 1.407195493321E+00 6.503776425234E-01 -1.384582617454E+00 -1.160200765780E-01 -2.269737988559E+00 3.366535394528E-01 -4.719625333004E-01 -1.190401632802E-01 2.509208615605E-02 -4.847160665782E-01 -2.148706804364E-02 -8.526096729229E+00 -1.516082138024E+00 2.649032367864E+01
 -2.406773128005E+01 8.973279475573E+00 -2.982770864412E-01 -4.153500983623E+00 -4.896638180870E+00 6.209845138230E+00 -2.038216416200E+00 4.684109267015E-02 -9.417545544969E-01 -8.429129154657E-01 2.077518292230E+00 1.848353730726E+00 -7.760296071004E-01 -4.721808652946E-01 1.112275660518E+00 -6.403751347958E+00 -9.127954553536E+00 -6.134055768646E+00 -5.386702325808E+00 6.080289317056E+00 2.016031597438E+00 -5.671634874388E-01 2.974689865785E-01 -3.285893667742E+00 -3.099737384028E+00 -2.078506828262E+00 -5.414557199588E-01 1.295192609773E+00 -2.186251643165E+00 -1.793473585021E+00 -5.565280338140E+00 -1.875447709861E+00 6.405739612147E+00 -2.219299017626E-01 6.768767435416E-01 9.806763548682E-01 1.055829554186E+00 1.593511788728E+00 1.386775883361E+00 1.565568958207E+00 2.306554029180E+00 -5.094666530290E+00 1.899387856298E+00 -6.207868125627E-01 2.607142519118E-01 1.130848607347E+00 2.783028542426E-01 -6.959602434175E-01 3.575072466540E+00 -3.695272804201E+00 5.662254122726E-01 6.950405044285E+01
 1.235191793967E+01 -1.435720641874E+00 2.016054836101E+00 -3.402285366589E-01 -3.384878341013E+00 3.295636096680E+00 7.338324255937E-01 2.748248827384E+00 4.959929069764E+00 -1.119173821491E+00 2.855238689737E+00 2.176029626928E+00 7.995893462232E-02 -1.364565980826E+00 7.375117766968E-01 -1.209601158382E+01 -2.022122943889E+01 -9.216399608527E+00 5.961807975856E+00 8.609254510804E-01 5.809531489567E-01 1.963611623377E+00 7.206884121774E+00 -1.245103446845E+00 6.775440226884E-01 4.993838439557E+00 -5.301991155552E+00 8.193076530159E-01 -3.982899252018E-01 1.966455068446E+00 -3.398585454172E+00 -2.209088425580E+00 4.232946123132E-01 -6.992627516789E-01 -2.479449106141E+00 -7.166395603607E+00 -2.554798566258E+00 -9.039615684431E+00 -7.939901119335E-01 9.592712880622E-01 -5.257395357531E+00 5.244597819436E+00 1.254624848446E+00 -5.335401432143E+00 3.172157305080E-01 9.105963148885E-01 1.401362080544E+00 -4.564750540444E-01 -4.698806973056E+00 -2.082691326971E+01 -2.975614249695E+00 5.580110580529E+00 5.884833594771E+01
 -4.333070315833E+00 1.096279227574E+00 1.044517417341E+00 1.118638703144E+01 3.848422952708E+00 -1.137932268529E+01 9.716933063200E-01 6.461036019297E+00 1.519648448475E+00 1.408378311904E+00 1.155992132316E-01 2.944702950899E+00 -2.951122681129E-01 -1.169835468439E+00 1.130502065973E+00 -7.918029810926E+00 -1.300914972441E+01 -3.493695358514E+00 4.582810943162E+00 -2.062676034549E+00 1.298349127798E+00 -1.123608918867E+00 8.167451407440E+00 -2.607151383600E+00 1.500177275623E+00 3.452563294213E+00 -2.544043672604E+00 -7.232286295815E-01 -8.564252912151E-01 -2.135985776117E-01 6.023961825319E+00 3.817454721262E+00 -1.011950632684E+01 2.507339954031E+00 -3.162347550458E+00 -7.510326904326E+00 -1.942081142286E+00 2.666801639584E-01 -3.414416789918E+00 -1.056838001712E+01 3.315419125127E-01 -1.921597541159E+01 6.176810461310E-01 -5.716464081418E+00 2.148431730341E+00 2.714133392959E-01 1.474634365216E+00 -3.407579815170E-01 -4.267481035779E+00 -7.892746691298E+00 3.067951873274E+00 2.722985046542E+00 1.250934510412E+01 5.465498952254E+01