#BIOSYM hessian 1
@Type: Hessian Update
@Units
 distance: 	A
 energy: 	Kcal/Mol
#header
@natom 19

#label
L1      L2      L3      L4      L5      L6      L7      L8      L9      L10     L11     L12     L13     L14     L15     L16     L17     L18     L19

#element
Li Li Li Li Li Li Li Li Li Li Li Li Li Li Li Li Li Li Li

#matrix
57
 3.224613302236E+02
 -8.833104598798E+01 1.375841127916E+03
 -1.774487517093E+02 2.645100268883E+02 2.217079401219E+03
 1.352463891775E-01 -1.043592844345E-04 -1.010055797047E+00 2.574767546336E+02
 -6.127782979841E-02 -7.178094402416E-02 5.802856292269E-01 -7.723733993826E+01 3.957425334768E+02
 -5.927124273669E-01 -4.534480566644E-01 9.615391076058E-01 -1.950120102084E+02 1.737153252327E+02 3.752738187188E+03
 -1.868122020377E-02 -1.224116434532E-01 5.813592450665E-01 -4.208634374348E-02 -5.363535324994E-02 2.841011720173E-01 1.455434235233E+01
 -4.322698885406E-02 1.321040871513E-01 9.433388094662E-02 -5.556106865890E-02 6.913829610378E-02 3.527975568805E-01 -8.087511321206E-01 7.226895534683E+00
 2.047965919418E-02 3.731839926267E-03 -1.848929627365E-01 4.314571574901E-02 1.723163469253E-03 -3.770830347705E-01 1.316256421950E+01 -1.815737633214E-02 4.313996463938E+01
 -6.737439088680E-02 1.502753546106E-03 1.048589322397E-01 -2.364490894701E-02 7.453870183526E-03 -4.967728751025E-01 -2.255150138489E-02 3.106628516249E-03 -2.256163349276E-02 6.973517810747E+00
 2.169008032623E-02 -4.729386539555E-03 -2.698976581425E-02 1.344927630392E-02 -1.718685534332E-02 -9.115444803414E-02 1.382845233870E-03 -2.859073986690E-04 4.101153159375E-03 1.636286921393E-01 2.902328073806E+00
 4.070041151717E-03 -9.846805689503E-03 -9.514466187429E-03 7.926701776765E-03 -1.363920261402E-02 -1.273390867467E-01 -1.076259725373E-02 5.980378773533E-03 1.129423568889E-03 5.116556912159E+00 -3.740355520552E-01 1.644378859253E+01
 -1.666892485536E+01 2.127178237332E+01 1.917516533917E+02 -4.350145743477E-01 1.697552436567E-01 2.775541083360E+00 -5.980522271699E-02 -2.365049862287E-02 4.335158606903E-02 1.015194055294E-02 -7.727170612586E-03 -2.772257195767E-03 1.109560916025E+02
 2.223715205438E+01 -2.863759147476E+01 -2.490995437052E+02 -6.931946652790E-01 7.273302589795E-01 1.482346072332E+00 1.782290166254E-01 4.094244512370E-01 -2.238034739299E-01 1.950973347752E-01 -6.199618391368E-02 -1.043229021947E-02 1.535187506379E+01 6.219033026883E+02
 1.874624648905E+02 -2.541240834293E+02 -2.183987147270E+03 3.920277912155E+00 -2.287891856863E+00 -1.162457147883E+01 -1.269684478180E+00 -1.244000461225E+00 7.583824586984E-01 -6.680820209464E-01 1.964630436945E-01 2.863661450094E-02 -2.309174485624E+02 -8.611622857322E+02 5.239274402870E+03
 -1.503238307210E-02 -1.061621660658E-01 1.366502673226E-02 -5.736073021165E+01 3.877378554163E+01 -2.624709761251E+02 -1.453642684991E-01 1.378741716100E-01 -1.592585682792E-02 3.036373278834E-01 -4.267105317485E-02 2.296310871244E-02 -5.572733445149E-02 3.576013939524E-02 -1.912101014909E-01 2.847584405527E+02
 -1.966688373980E-02 -9.599985728713E-03 -1.785418093985E-01 3.914034306107E+01 -2.654513494119E+01 1.809931851125E+02 1.114603443936E-02 2.386591318054E-03 -1.888807149156E-02 -2.574761567923E-02 -1.833320040020E-03 -1.297671351749E-03 2.844139138516E-02 -1.729279469442E-01 6.344651317204E-01 -3.193435238909E+01 5.169068755325E+02
 1.207966034134E-01 9.555681039945E-02 -1.822634038028E-01 -2.635905543162E+02 1.782427793776E+02 -1.196568788558E+03 -1.108694664393E-01 5.455575830028E-04 5.612661212607E-02 3.829035063543E-01 -2.369181091840E-02 4.459914628452E-02 -3.431608632225E-01 1.806761683327E-01 -8.890583529031E-04 2.624418497937E+02 -1.227086747247E+02 1.286167190549E+03
 9.144039566473E-02 -3.385949272542E-02 -5.579874378667E-01 -2.981130877647E+00 -3.889169642161E+00 3.036203865130E+00 -4.965408963307E+00 4.327323541115E+00 3.590726032289E-01 9.847261380815E-03 -8.246802188783E-04 2.884414308276E-03 -1.087835325807E+01 -1.532645586172E+01 -1.184892077421E+01 -2.828214254824E-02 3.346443940877E-04 -4.133674756421E-02 4.859872195562E+01
 -8.517242466735E-02 6.304041014318E-02 -2.080399140394E-01 -3.802369897974E+00 -5.325049258423E+00 3.130934996032E+00 4.319974621201E+00 -3.858304931489E+00 -3.182223931627E-01 1.466798500102E-02 1.467452158808E-03 -2.500697221288E-03 -1.502449715990E+01 -2.142458154288E+01 -1.643912717986E+01 -6.987271135025E-02 1.925269459492E-02 -3.696025815605E-02 4.104784208406E+01 7.831344717683E+01
 7.159011216497E-02 -1.349729160831E-02 -1.889884256515E-01 2.471724876080E+00 3.560664229572E+00 -1.119976847282E+00 4.202017297249E-01 -3.216182624767E-01 1.467936749853E-03 -2.970637601355E-03 2.977050167196E-04 2.578606818155E-04 -1.341061560743E+01 -1.831005656384E+01 -1.672471577666E+01 1.142886775792E-02 4.371776734901E-02 -2.221943958958E-01 1.235736469599E+01 1.756648911185E+01 2.763054836051E+01
 -1.130916891669E-01 -5.430994422753E-02 -7.915021915417E-02 -2.659496972453E-01 -3.603725081250E-01 3.283936457890E-01 4.605147748282E-02 -6.356447512924E-03 -3.070138127363E-02 -1.299741674898E+00 1.258789007721E+00 3.188745922653E-01 -2.048813265881E+00 -3.717542712163E+00 2.290165228130E+00 -8.363336226772E-02 3.926613215794E-02 -2.478073181758E-01 -1.954720403251E-02 -2.654207059837E-02 9.736450890034E-03 4.662792587118E+01
 -5.318439071989E-02 -2.897326431435E-01 7.536430254127E-01 -6.556307812258E-01 -6.955132132284E-01 -8.775041445887E-01 4.639474098220E-02 -4.377975531296E-03 -1.151877290176E-01 1.307571684688E+00 -1.217220843341E+00 -3.199992198697E-01 -3.263050571808E+00 -5.035226994265E+00 3.835605812878E-01 -9.398765633980E-02 -1.181216672802E-01 8.953487118508E-02 -3.086999903951E-02 -3.201703692788E-02 1.557996855532E-02 4.460583468393E+01 6.339263842628E+01
 1.869023891836E-01 7.082719554811E-01 -1.325179520076E+00 -4.406090130978E-01 -7.662337881180E-01 -6.451143687843E-01 1.832397882438E-02 -5.463481794922E-03 -6.739289392384E-03 3.373432273015E-01 -3.120792203092E-01 -8.027895372621E-02 9.884529087809E-01 1.915103931071E+00 6.424163001064E-01 -9.547866987275E-03 1.327016845574E-02 -5.490441584436E-02 -3.447940038385E-03 -8.240391720906E-03 3.037551015136E-04 1.019686328595E+01 1.406883297669E+01 1.465493612028E+01
 3.728522916991E-02 -1.030591246272E-01 1.217122451962E-01 -1.415666664392E+00 1.531811119132E+00 5.393515727087E-01 -2.684965232980E+00 -3.011142748259E+00 1.866043188783E-01 4.744832658000E-02 -3.215280987329E-04 9.169769763684E-03 -5.015784090557E-01 8.538578110167E-01 -4.009565760360E-01 -3.782591530990E-02 -2.293980144852E-02 8.549543395749E-03 4.173045231955E-02 6.816352356456E-02 -2.329874661976E-02 -7.374847618140E+00 -1.607370348583E-01 -1.667346725616E+00 6.722511381601E+01
 1.038748985809E-01 -1.842604793894E-01 6.683420669374E-01 1.885959097329E+00 -2.383798759521E+00 -1.083974554810E+00 -2.964878888787E+00 -3.146311086006E+00 2.007784507088E-01 -5.905829064431E-02 -6.653967872679E-04 3.039658397287E-03 9.649572551524E-01 -1.332949671563E+00 -3.602624670481E-01 -4.237847411470E-02 -2.570108595649E-02 -2.305982825656E-01 -1.850188519147E-02 -4.128178322311E-02 3.049518441458E-02 -1.064201574075E-02 3.025816228642E-01 -2.351877182067E-02 -6.643038741486E+01 9.571901709096E+01
 -7.957160465576E-03 3.177115715431E-02 3.453213974370E-01 1.158812569132E+00 -1.516934610350E+00 -1.579097183271E-01 1.889747339176E-01 1.689054126950E-01 -3.372322240764E-03 7.208101140562E-03 -1.511441969044E-03 4.691776140716E-03 -4.786413568140E-01 1.638236999999E+00 -2.849298587201E+00 -1.412027001390E-02 -8.962417035666E-03 -9.310972660176E-02 -3.554201035598E-03 -9.760127780704E-03 -2.066407310404E-03 -1.650687095431E+00 5.501994902469E-02 -3.709970346143E-01 5.759190046182E-01 -3.736916132023E+00 1.128051680253E+01
 1.638441233126E-02 -2.377921178289E-02 -7.964284840229E-01 -2.269465341833E-01 4.188718010166E-01 1.244757655139E+00 -1.342417780879E-02 -3.931667132369E-03 1.305983750536E-03 -1.480886815897E+00 -1.578110216332E+00 1.928511922890E-01 -7.774689225445E+00 9.352152959021E+00 6.814395909248E+00 -1.321624380698E-01 1.213246521724E-01 -5.982693571688E-01 -1.223316708693E+01 9.934437865680E-01 -1.877850589204E+00 1.012850340701E-02 1.609123681191E-02 7.621249481401E-03 -1.451277117194E-02 1.404744831857E-02 -5.285985517102E-03 2.610469966372E+01
 -1.393141305978E-01 -1.256351101709E-02 4.928303824214E-01 4.889694924491E-01 -6.553096525634E-01 2.273745915621E+00 -6.837395690030E-03 -5.126636888723E-03 1.244747070249E-02 -1.580772936111E+00 -1.680592942306E+00 2.218146804649E-01 9.452343520467E+00 -1.152142858449E+01 -7.218097565756E+00 1.501713479268E-02 1.432247388744E-01 -3.818828464914E-01 9.751477352535E-01 -3.463387385184E-02 1.303095918418E-01 4.188109682995E-02 6.566436334527E-02 2.133895746265E-02 -9.924460049192E-02 1.513011609071E-01 -5.630487442817E-03 -1.294791371716E+01 2.026348124532E+01
 -2.445882430038E-02 3.430129928272E-02 1.424051525135E-01 -3.883696172125E-01 6.507714949225E-01 -1.570350609931E+00 -1.296017498309E-02 -7.232895456853E-03 9.118939763262E-03 1.926953443511E-01 2.051837215673E-01 -2.697865750874E-02 5.285181181862E+00 -6.557150637679E+00 -3.527740994426E+00 5.568186181472E-02 -6.341343108336E-02 3.469224129782E-01 -1.861631871161E+00 2.098099784894E-01 -2.848954748051E-01 -5.295268528492E-03 -1.940582561595E-02 -3.621385559162E-03 1.582959509419E-02 -1.540413748930E-02 -1.041350635277E-02 -4.837540099272E+00 5.285755683773E+00 9.350751446029E+00
 2.687403364353E-02 -4.755544445306E-03 3.269377141061E-02 -1.167383707377E+02 -2.145302576966E+00 5.051373765048E+01 3.389018223473E-02 1.151324980599E-02 4.346874149158E-03 -3.344074546099E+00 1.918757288444E-01 -6.871267810531E+00 5.605404523324E-02 -2.866093320292E-02 -2.769968393384E-02 -2.720132716881E+01 2.442995616543E+00 -9.168661029263E+00 2.006008678160E-02 1.613306320825E-02 9.995413038658E-02 -1.787186510912E-02 5.563004436227E-02 -1.247577914354E-02 -6.779446872685E-02 -5.435470641807E-02 1.938421199147E-02 -2.725099304258E-02 -1.488015727613E-02 2.541249581944E-02 1.549604009499E+02
 -2.946828316024E-02 -4.185342224039E-03 -1.863863047184E-02 -2.218226743972E+00 2.785567732896E-02 1.692678110816E+00 -4.601834862998E-03 -2.244393412239E-03 -1.082769070092E-02 1.962276196415E-01 -1.119701366115E-02 4.010925529996E-01 -2.950789206327E-03 2.979911991646E-02 -4.389917342136E-02 2.444006297750E+00 -1.920838253095E-01 8.139725513872E-01 -2.011437771375E-03 -6.315101497917E-03 -4.562353624531E-03 1.153914008243E-02 1.707873909692E-02 4.670352730347E-03 3.450139795366E-03 -4.222044073927E-03 3.686719845015E-03 1.256735499661E-03 -1.542317187272E-03 -6.279209795450E-04 1.649517333923E+00 7.485517314109E+00
 -4.722780674112E-02 8.191196049475E-04 1.900367345875E-01 5.040874266892E+01 4.665949041758E-01 -2.059131496700E+01 -1.726819995150E-02 3.283152789931E-03 2.669998134477E-03 -6.851993635641E+00 3.886041057759E-01 -1.410939227341E+01 3.349604241504E-03 2.482500773731E-01 -8.736627630370E-01 -8.798928495557E+00 9.848900199863E-01 -3.536451807890E+00 -6.351896444306E-03 5.017011528089E-03 -4.419220045893E-02 2.845549826686E-02 2.682522942762E-03 1.488536067584E-02 6.115115537829E-02 -4.476853297920E-02 8.862405346050E-04 1.217707947950E-02 -6.975369694609E-03 -9.950553099387E-03 -3.441401713629E+01 -1.386920038267E+00 3.836235339591E+01
 6.157847660000E-03 8.245426006127E-02 -7.705058271642E-02 -9.562947158913E+00 2.045643155029E+00 -4.981592244299E+00 -4.909580993324E-01 -4.489674898843E-01 1.542528113259E+00 -2.043312787565E-01 3.405537358871E-02 -1.122679395748E-02 -1.991193872480E-02 -1.906675429529E-01 6.820354579092E-01 -1.786270969985E+02 1.375863539258E+01 4.800564756411E+01 2.592288389119E-02 9.620126190960E-02 -3.808145916184E-02 3.860831787635E-02 4.465712571297E-02 3.187237186177E-03 -1.323135644636E-01 -2.326875159318E-01 -3.826836184275E-01 2.693412558977E-02 -2.471199764553E-02 2.087421379865E-02 4.770738807943E-01 -8.304388224264E-02 2.418736079262E-01 1.898655486309E+02
 3.084160571789E-02 -5.512729994429E-02 -1.521903089582E-01 1.511480027335E+00 -1.822298760010E-01 1.258518166667E+00 -3.151490081119E-01 -1.514434338493E-01 8.130624811480E-01 1.075539693308E-02 -2.452432691539E-03 -5.940480383310E-03 -1.866752713879E-02 -3.002487545696E-01 1.003409677599E+00 1.393726667621E+01 -1.087293856848E+00 -3.889966876748E+00 1.335458486738E-02 2.469841854670E-02 5.881638632739E-03 1.897082164874E-02 2.694915325251E-02 8.472914969956E-03 -2.011629592765E-01 -4.340817385307E-01 -6.454715297138E-01 1.823985747881E-03 4.026969172479E-03 2.336613573998E-03 -2.930064979117E-02 7.517311792479E-03 -2.821958170546E-02 -1.442258719860E+01 2.582830656232E+00
 3.613938860649E-02 -9.684935035977E-02 2.693102861882E-02 -3.783679860602E+00 3.452509525120E-01 -9.634341516226E-01 1.500655176697E+00 8.111842041098E-01 -3.692017493519E+00 4.649864827914E-02 -8.163523269841E-03 -7.468685020203E-03 3.646705491779E-03 -1.689203749047E-01 4.113328656450E-01 4.751263608215E+01 -3.513925697420E+00 -1.337066760838E+01 6.685770913859E-03 1.796179780259E-03 1.961218547790E-02 1.387562802767E-03 5.121681082559E-04 5.443287990483E-03 -3.236573642215E-01 -7.000442585181E-01 -1.036672333677E+00 -9.587111896716E-03 3.875906795926E-03 -5.832071648600E-04 -1.514928382537E-01 3.351960714514E-02 -7.816576436999E-02 -4.439990935853E+01 2.981151460744E+00 1.932914468468E+01
 -1.790682894310E+02 -9.146825199030E-01 2.244465870673E+01 6.227866670450E-03 -1.877263078150E-02 -6.911507743502E-02 -5.982799499075E-02 9.723220962270E-02 -3.256329461235E-02 -5.843611873223E-01 -7.973816241413E-02 1.258466230243E+00 -4.715826374035E+01 -4.169202654197E+00 -2.952893302297E+01 6.890431928260E-02 1.308066366353E-02 9.442821525394E-02 -4.668557294089E-02 3.591553150241E-02 -6.459180109804E-03 -3.690640811025E-02 3.450304688382E-01 -3.856891628409E-01 -5.996351512630E-02 -6.855222854791E-02 3.038300492809E-02 2.530470424878E-02 -4.131951409466E-02 -1.654573539388E-01 -5.778733056042E-02 6.512618342346E-02 8.902734213506E-02 -4.376187144312E-02 -6.460314925446E-02 -7.786492474504E-02 2.307238442751E+02
 -5.909228958093E-01 -2.345484731843E-01 -1.122871225444E-01 -2.831283474512E-02 1.207995904109E-02 5.040179437379E-02 -4.404583847569E-03 3.194334642495E-03 -1.804931261671E-02 -4.364094341243E-02 -3.505944008391E-03 8.946727907154E-02 -4.189361125339E+00 -2.272772448345E-01 -2.504724734858E+00 6.532971682142E-02 -1.076201671273E-02 5.159715577455E-02 6.600417221633E-04 4.476159843834E-03 8.014075458124E-03 3.315110376330E-01 -1.017076596281E+00 1.001611566779E+00 1.216725953186E-02 -2.344156566179E-02 3.423284096847E-03 -1.324876300642E-01 -4.533533462541E-01 -5.202620442381E-01 -3.149256407674E-03 4.025689110674E-04 1.938247256470E-03 -5.431393286277E-02 4.222700254145E-03 1.270552090887E-02 5.296173755906E+00 4.405307484577E+00
 2.276326047492E+01 3.116372119275E-02 -2.727402202721E+00 -1.727460451190E-02 3.244187600558E-02 2.578423729209E-01 4.745147266723E-02 9.573016938026E-03 -1.519119173332E-03 1.244779282505E+00 8.931091616587E-02 -2.208635912073E+00 -2.862840620445E+01 -2.937367061953E+00 -1.675363930938E+01 -2.269921222118E-02 7.863000513639E-03 -8.293228069652E-02 -2.859059413377E-02 -4.133559771899E-02 -1.110313954605E-03 -3.277575070862E-01 1.017183762124E+00 -9.538789600367E-01 7.356496940365E-04 -1.515352698259E-02 1.296098168887E-02 -1.640129643683E-01 -5.293831482572E-01 -6.033098749976E-01 5.923420519181E-03 -6.335303434476E-03 -9.345712821230E-03 1.646144238319E-02 5.328392098037E-03 1.164107986791E-03 5.188241486399E+00 1.901292634867E+00 2.432252144939E+01
 -1.180472950229E+02 2.505987539091E+00 -2.755152783824E+01 4.452463605173E-02 -4.582398071466E-03 -2.835129696526E-01 -5.747059650975E+00 -2.841062174840E-01 -1.517286515062E+01 -7.137017145293E-02 2.019570800687E-02 6.320597945438E-03 -2.257937614054E+01 2.109486098893E+00 1.064029159044E+01 1.044407131592E-01 -5.860632963182E-03 2.147106401888E-02 -7.091290972763E-02 -4.805012449079E-02 5.182143576457E-02 -4.407368941258E-02 3.679120093039E-02 -4.312923393962E-02 -1.429318157633E-02 8.941393108921E-03 3.772997456848E-02 -3.816555793842E-02 -4.973396979408E-02 -8.115742922865E-03 2.931858309636E-02 -3.687120625505E-02 -4.707872609196E-02 -7.906173572901E-02 4.204776867399E-02 6.753711801531E-02 1.941317356908E-01 -1.366916681008E-01 -1.232495557941E-02 1.553821240099E+02
 2.196058047660E+00 1.382514763547E-03 -9.875439453963E-02 1.036640688641E-02 -6.107579744477E-04 -7.959438871182E-02 -2.699468034395E-01 -1.343614313913E-02 -6.833936276778E-01 3.263945379124E-03 -1.037544353171E-03 3.838986369318E-03 2.103629503380E+00 -9.696190723162E-02 -3.059489183518E-01 7.652631815521E-02 -2.128835255686E-03 3.776442193179E-02 5.445644108839E-02 -1.329043949500E-01 -1.472230075999E-01 -1.413763594075E-03 -3.012712077097E-02 7.538401823980E-03 -4.657425778119E-02 -8.114825228419E-02 9.777221476085E-02 -5.995661848118E-03 4.291891426434E-03 -3.572433536499E-03 -4.643560596342E-03 -6.091772025083E-04 4.666064150591E-03 -6.803127078770E-02 4.546759628031E-03 1.687075725481E-02 2.122393794622E-01 1.858320056927E-03 -4.559135566819E-02 3.986644747734E-01 7.611608238678E+00
 -2.729888065930E+01 5.310471030629E-01 -6.114624560566E+00 -4.346250289743E-02 -3.528031017447E-02 2.269169822063E-01 -1.517542018969E+01 -6.363404511270E-01 -3.932788662027E+01 6.935540531663E-03 9.412788403750E-04 5.460135818576E-04 9.706597744479E+00 -1.035722904440E+00 -4.129819802066E+00 -5.283967567555E-02 2.408241676350E-03 -4.242463041902E-02 1.133719767359E-01 -1.098703974700E-01 -1.945372870931E-01 -1.222942140743E-02 7.201959205345E-02 -1.070942551561E-02 8.280339065001E-02 2.836622194332E-02 -1.314051728385E-01 -1.656762536010E-02 -6.989169460975E-03 6.152192609593E-04 -8.874605329935E-03 2.925589647765E-03 -2.174436046643E-02 3.347756010404E-02 -2.971020852980E-02 -3.458787548825E-02 3.281589790413E-02 -2.425628052586E-02 3.024301693697E-03 3.395004219306E+01 2.000174560397E+00 5.044849297381E+01
 -8.560597456733E+00 8.041193816719E+01 -4.333694628664E+00 2.484387844419E-02 7.374408829029E-02 4.283627099272E-02 -3.394111225264E-02 2.653718429128E-02 -3.304932154011E-02 1.519107076782E-02 -6.221390342271E-03 -5.286392515253E-03 -7.963025118806E-01 5.570991329925E+00 1.634188696311E+00 -1.521182862757E-02 1.005878911605E-02 -6.018390849200E-02 -1.183708101363E-02 1.024398600591E-01 -1.146941200821E-03 -3.230449613007E+00 -5.813854688176E-01 4.103971296212E+00 -3.364764218137E-01 5.890080462045E-03 -7.535014854574E-01 2.788148114419E-02 4.513849036568E-02 1.935022637730E-02 -2.689636453114E-02 7.740353237834E-03 1.302182315798E-02 1.390084733309E-02 -5.749485560907E-03 -2.720721133489E-02 -1.623628534401E+00 1.262477484723E+00 7.215816200989E-02 -7.045218892026E+00 -6.348616748349E+00 -1.253473823179E+00 2.160069399088E+01
 7.964972797268E+01 -7.682668076429E+02 5.857449175248E+01 1.573517758348E-01 -6.869994617134E-02 -7.419255271827E-01 2.257223426018E-01 -2.322240908023E-01 9.679720583544E-02 -1.216022538714E-01 5.874760198884E-02 1.842449725309E-02 5.588832214172E+00 -3.527303382326E+01 -2.285000701476E+01 -7.270649509705E-02 -6.215014004974E-02 1.186357060020E-01 1.954944661212E-01 -6.623023748884E-01 2.054440627209E-01 -7.207880899743E-01 6.769941895938E-01 -5.742719727636E-02 4.738370299467E-01 9.567599036270E-01 3.012596883608E-01 -2.136598337911E-01 -4.140693417745E-01 -1.353304455283E-01 1.082549731247E-01 -6.790815015888E-02 -2.967517134986E-02 -5.138464635856E-02 4.060390215046E-02 1.858627176972E-01 1.134731361642E+00 -7.881686704942E-01 1.932241728928E-01 -6.122666057885E+00 -5.436856590484E+00 -1.175666991948E+00 -8.044652214748E+01 8.096597727641E+02
 -6.236947474196E+00 6.034544991558E+01 -5.436949059617E+00 2.920996529319E-02 -3.048044213518E-02 -2.042942088956E-01 -1.060209263210E-02 2.227133776237E-02 -1.011732203264E-03 2.557573574444E-03 -2.621534238202E-03 -6.081012411923E-03 3.805006945408E+00 -2.411865789932E+01 -1.549412783036E+01 -4.166451105029E-02 1.355195520077E-02 -3.006576186494E-02 -3.633644231016E-02 2.074325245492E-02 -4.395537255828E-02 4.082950430100E+00 5.548043106205E-01 -5.015035106242E+00 -7.923042934415E-01 8.755196126636E-02 -2.060527250481E+00 -3.551668667659E-03 2.913863525577E-02 4.883667293402E-03 -4.880438880957E-03 2.556083872861E-03 1.388228606011E-04 5.610508817359E-02 -5.621418678565E-03 -2.850565422116E-02 3.880065803699E-01 -8.829109546714E-02 -2.763132843193E-02 -1.430988076747E+00 -1.123468459452E+00 -2.666940083210E-01 1.391323607829E-01 -3.512856970049E+01 2.949476722957E+01
 1.798407634660E-02 1.078414599846E-01 -2.234860922977E-01 -2.779382188114E-01 -4.820669142629E+00 1.743804379247E+00 3.255392988371E-03 -2.025014150636E-02 -2.788701419451E-02 -4.001951201184E-02 7.319830270350E-03 -6.863063773873E-03 -2.930177377400E-02 -6.863583245652E-03 3.307466853477E-01 -1.500729314822E+01 -6.216688048255E+01 -2.761172528931E+01 7.800996757739E-04 -1.940931716789E-02 -1.540323918163E-02 -2.414145539505E-01 1.124459942370E-01 -6.363740927302E-01 -3.462168220049E+00 -1.983488755250E-01 4.471974158009E+00 -3.072387752176E-02 -8.426805650368E-02 1.289337488382E-02 -2.617041774934E+00 2.765783443021E+00 -7.402533346440E-03 -1.038883406033E+00 -7.184768198462E-01 -2.106505942581E-01 -9.697775297219E-04 -1.682404683137E-03 -1.532930068674E-03 -2.896899746474E-02 -1.162036058105E-02 4.711784898447E-02 1.835219106477E-02 -1.656165137363E-01 1.320205061677E-02 2.261392097727E+01
 -5.218500901757E-03 -6.563731881500E-02 2.485525964883E-02 -5.083172344529E+00 -1.268012359649E+02 4.860128245685E+01 9.299216721267E-02 -7.802531009825E-02 8.904776158416E-03 -1.594311766473E-01 3.044514247037E-02 -6.434740332134E-03 -2.093753547717E-02 -2.806580923801E-01 8.642807270482E-01 -6.227536051620E+01 -2.582363177246E+02 -1.153820795834E+02 3.037741392323E-02 -3.153239522684E-03 1.981001870804E-02 6.705354813479E-02 3.689027657275E-01 8.306371503908E-02 -1.937066234158E-01 2.239602952420E-01 4.710083789766E-01 -6.492263509701E-02 -3.051024917486E-01 3.225366592697E-02 2.727074635605E+00 -3.064866907979E+00 -6.505620963282E-01 -5.867688613653E-01 -4.038770186482E-01 -4.559945156259E-01 -2.346854419300E-02 -1.106768809555E-02 -1.293501032728E-03 -6.216853021175E-02 -3.783119043922E-02 6.676807446789E-02 -2.187707199386E-02 1.444270147209E-02 -1.081060143916E-02 6.553897076793E+01 3.902029461767E+02
 4.008919658716E-02 1.691812066858E-01 -3.053207551952E-01 1.944961441996E+00 4.884317238469E+01 -1.884737815682E+01 -1.767689798560E-02 -1.732574728438E-02 -2.645775237640E-02 -7.329968920540E-02 1.440995293268E-02 -6.285797203701E-03 -5.333600912507E-02 3.324649594212E-02 3.843366643234E-01 -2.866544723780E+01 -1.169515681076E+02 -5.266398521700E+01 -1.320174207307E-02 -6.388350475399E-02 -7.558222233999E-02 -6.463947501610E-01 2.948125219305E-01 -1.712892413132E+00 4.447293982744E+00 5.201590504659E-01 -5.759742621374E+00 -9.508155396007E-02 -1.943534308169E-01 4.172454798948E-02 1.712781071067E-01 -1.555642910676E-01 -9.703061411957E-02 1.449705441067E-01 -5.599253784220E-02 -1.882664933153E-01 9.301576675530E-03 -1.832230847495E-03 -5.302250115192E-03 -5.336405674975E-02 -1.549543746242E-02 4.353351251966E-02 4.824538455922E-02 -2.161150800624E-01 1.626290409989E-02 2.220960830668E+01 6.659310804520E+01 8.079509149358E+01
 4.381602408574E-02 5.451233500603E-02 1.994170079145E-01 -1.020270078143E-01 -2.290945770002E+00 -4.496576361626E+00 1.207176522047E-02 -9.928897279236E-03 -5.971528327379E-04 -3.063626449826E-02 5.467658734163E-03 -1.454670867947E-02 1.969095864562E-02 1.753106487932E-01 -7.207773579760E-01 -6.285796326549E+00 3.831017862864E+01 -9.313358752188E+00 -1.533569276492E+00 -1.643571188259E-01 2.603212862095E+00 -3.612861981585E-02 1.761931856952E-02 -1.697094344073E-02 6.070858534569E-02 -4.105470128234E-02 3.593701821286E-03 -1.625557510449E-01 -2.378136288128E-02 -3.092501882632E-01 -5.428011419712E+00 -4.918564585809E+00 -6.596556797546E-01 -2.551134735747E-01 1.980066470634E-01 -2.919417461234E-02 -6.829811422140E-02 -4.103703211520E-03 -3.141637915252E-03 1.487001228074E-02 -3.505078047962E-03 1.782186642804E-02 -1.842274239550E-02 1.931216707145E-01 -1.347305717271E-02 7.816791926230E-02 3.837298613961E-01 1.783573535492E-01 1.401653703540E+01
 2.610351520919E-02 -1.356561789907E-02 8.366500416935E-02 -1.335119031613E+00 -2.012081984629E+02 -1.236360564899E+02 -5.622462210419E-03 3.872486889915E-02 -2.145282690812E-02 1.448284775484E-01 -2.090071552660E-02 -1.449683491791E-04 6.450851410637E-04 1.176524245978E-01 -5.072404813449E-01 3.862435225617E+01 -2.304286692208E+02 6.156718462189E+01 -1.378305013809E-01 3.844404368280E-02 3.784309089661E-01 -5.464771016263E-02 -2.496097409283E-01 -7.471806268926E-03 8.625105221622E-02 3.051316273043E-02 -4.158011400596E-02 1.136123717873E-01 1.211214162517E-01 3.998939829857E-02 -4.727754720157E+00 -4.146948437772E+00 1.603860677747E-01 -1.604356239109E-01 -3.086770921709E-01 4.557619285438E-01 -2.948784971882E-02 1.873820815821E-02 -1.527535605987E-02 8.377194724090E-02 3.756247528951E-02 1.687248246789E-03 -8.799470233295E-02 2.591441692771E-01 -2.830427635326E-02 -1.617892356642E-01 -5.581909908734E-01 -2.463116958296E-03 -3.183416898404E+01 4.374219718053E+02
 2.672146359725E-02 2.843425446551E-03 -4.102802007116E-02 -7.948239538438E-01 -1.223487015641E+02 -7.494520029169E+01 2.448042144771E-02 -1.831735357026E-02 1.079001022282E-03 -1.446125054496E-02 8.890737748579E-03 1.882166188131E-03 -4.320541527236E-02 3.293090733600E-02 7.129221369739E-02 -1.091795706611E+01 6.268341349701E+01 -1.687940706636E+01 2.625002976680E+00 2.455449019425E-01 -4.433571488912E+00 -4.863407984824E-03 2.044725676953E-01 -4.235509345649E-03 8.865199207542E-02 1.857813716180E-01 2.348437933540E-02 -3.844059370477E-01 -1.135947872685E-01 -6.806761906087E-01 -5.133840024899E-01 -4.811178701090E-01 8.823235603811E-02 3.816463804739E-02 -3.553454128797E-02 -4.876098645387E-03 -3.767557211957E-03 9.007842370339E-03 -1.453455634704E-02 -1.435040027642E-02 -1.535076160521E-03 2.768118329880E-02 -3.508202726610E-02 7.546495543676E-02 -2.223497382891E-02 -9.854413707388E-02 -2.340399936678E-01 2.156455084614E-01 1.018223639076E+01 6.065587993023E+01 9.752159096243E+01
 -3.592292251968E-01 -1.443782522731E+01 -1.586747996163E+00 8.714601911562E-02 -5.322617169606E-02 -5.130799507742E-01 -3.371008618193E-03 1.029460415180E-03 1.510813871164E-03 5.116646253193E-03 -1.530278624682E-03 -3.188316644510E-03 -1.382348604566E+00 -1.307707661082E+01 8.219584979835E+00 9.796735841095E-03 -2.796372025219E-03 4.340401468451E-02 -4.920460113605E-01 3.879498854142E-02 -1.333947261871E+00 3.061787636422E-02 9.547568508544E-03 3.594322255360E-03 -1.737519102013E-02 1.326151063696E-03 -1.028349151779E-02 -1.879440159413E+00 1.269155373194E-01 2.560644374343E+00 -2.073973614708E-02 2.265672573740E-03 1.525489645576E-02 2.160811785044E-03 -1.296871377308E-03 -4.694324112944E-03 -2.026164178134E+00 -1.785362561862E+00 4.947323916324E-02 -1.892526876200E+00 1.712500362444E+00 -2.354383808137E-01 -1.052521980116E-02 1.537151042607E-01 -2.546137641381E-02 -1.911365161972E-03 -9.860766403699E-03 2.362926457820E-03 -4.544046672554E-03 1.118899444168E-03 3.231497318188E-04 8.060886914944E+00
 -1.453395053656E+01 -5.775995346380E+02 -7.295819132703E+01 -2.615971691185E-02 -1.433346337464E-01 4.492275441391E-02 -6.638384341764E-02 1.021975012386E-01 -5.547589576879E-02 1.394677971910E-01 -5.516802863513E-02 -1.841260235020E-02 -1.328502576959E+01 -1.334080919940E+02 9.895207215383E+01 9.042920964584E-02 5.993920653992E-02 -1.950366516306E-01 -1.607294931653E-01 3.115861823071E-01 -8.254385250587E-02 3.709683838190E-01 -3.869948102586E-01 -9.112403935990E-02 -2.494874827789E-01 -7.743166830069E-01 -1.887830570859E-01 1.155389826194E-01 5.095985912542E-01 -6.035657593078E-02 -1.183184868214E-01 7.722362309691E-02 7.755106870451E-02 3.445055319380E-02 -1.557839508176E-02 -1.109785034403E-01 -1.549389452395E+00 -1.603183461204E+00 -1.853601423827E-02 1.449510647859E+00 -1.807625867891E+00 2.887297082772E-01 4.318628749882E-02 1.577376511966E-01 -2.286997885647E-01 3.809902515341E-02 1.060534962486E-01 1.403081991492E-02 -2.062795986977E-01 -1.523929134935E-01 -2.531807825769E-02 2.795123772610E+01 7.148211652442E+02
 -1.826660655500E+00 -7.323371775836E+01 -1.001784161010E+01 -2.519585909930E-02 5.707178709836E-02 -3.099978589600E-01 4.719296494087E-02 2.443521993877E-02 -1.792808727650E-02 -2.651000863421E-03 -6.422030119025E-03 -6.810152138889E-03 1.035106128933E+01 9.804309207305E+01 -7.007685470815E+01 2.246111930286E-02 3.500466391871E-03 3.725197957618E-02 -1.384108905561E+00 3.746548393851E-01 -3.616897562171E+00 -4.963827988059E-02 -8.807653964285E-02 -3.164356427108E-02 -5.681169324983E-02 -1.224434143794E-01 2.673418615566E-02 2.638658951836E+00 -6.985316616703E-02 -3.451689674576E+00 -5.084973275551E-03 -1.034774093395E-03 -1.027146913195E-02 4.844627307361E-02 2.482473121795E-03 -1.730765662154E-02 2.889458878632E-01 7.125270660308E-02 -4.382435971049E-02 -4.845373456735E-01 1.789120970952E-01 -8.053104910375E-02 -4.083066849737E-02 2.093748317509E-02 1.656914538788E-02 -1.222462309846E-03 -2.374814273810E-02 -2.475490146670E-02 -4.229997635480E-02 -3.680747466274E-02 -4.200799401176E-02 -9.341826734372E+00 -2.596242766805E+01 8.892205602836E+01