 Job started on host DESKTOP-5CQNRD0
 at Wed Oct  2 14:37:05 2019

 +-------------------------------------------------+
 |                                                 |
 |      CCC   AA    SSS  TTTTT  EEEEE  PPPP        |
 |     C     A  A  S       T    E      P   P       |
 |     C     AAAA   SS     T    EEE    PPPP        |
 |     C     A  A     S    T    E      P           |
 |      CCC  A  A  SSS     T    EEEEE  P           |
 |                                                 |
 +-------------------------------------------------+
 |                                                 |
 | Materials Studio CASTEP version 2017            |
 | Ab Initio Total Energy Program                  |
 |                                                 |
 | Authors:                                        |
 | M. Segall, M. Probert, C. Pickard, P. Hasnip,   |
 | S. Clark, K. Refson, J. R. Yates, M. Payne      |
 |                                                 |
 | Contributors:                                   |
 | P. Lindan, P. Haynes, J. White, V. Milman,      |
 | N. Govind, M. Gibson, P. Tulip, V. Cocula,      |
 | B. Montanari, D. Quigley, M. Glover,            |
 | L. Bernasconi, A. Perlov, M. Plummer,           |
 | E. McNellis, J. Meyer, J. Gale, D. Jochym       |
 | J. Aarons, B. Walker, R. Gillen, D. Jones       |
 | T. Green, I. J. Bush, C. J. Armstrong,          |
 | E. J. Higgins, E. L. Brown, M. S. McFly         |
 |                                                 |
 | Copyright (c) 2000 - 2016                       |
 |                                                 |
 | Please cite                                     |
 |                                                 |
 |     "First principles methods using CASTEP"     |
 |                                                 |
 |         Zeitschrift fuer Kristallographie       |
 |           220(5-6) pp. 567-570 (2005)           |
 |                                                 |
 | S. J. Clark, M. D. Segall, C. J. Pickard,       |
 | P. J. Hasnip, M. J. Probert, K. Refson,         |
 | M. C. Payne                                     |
 |                                                 |
 |       in all publications arising from          |
 |              your use of CASTEP                 |
 |                                                 |
 +-------------------------------------------------+
 
 
 This version was compiled for x86_64-windows-msvc2008 on May 05 2016
 Intel(R) Math Kernel Library Version 11.1.2 
 Fundamental constants values: CODATA 2010
 
License checkout of MS_castep successful
 
 
 Atomic calculation performed for O: 1s2 2s2 2p4
 
 Converged in 61 iterations to an ae energy of -2040.902 eV
 
 Identity difference: 4.10E-04
 
   ============================================================                
   | Pseudopotential Report - Date of generation  2-10-2019   |                
   ------------------------------------------------------------                
   | Element: O Ionic charge:  6.00 Level of theory: PBE      |                
   | Atomic Solver: Koelling-Harmon                           |                
   |                                                          |                
   |               Reference Electronic Structure             |                
   |         Orbital         Occupation         Energy        |                
   |            2s              2.000           -0.881        |                
   |            2p              4.000           -0.332        |                
   |                                                          |                
   |                 Pseudopotential Definition               |                
   |        Beta     l      e      Rc     scheme   norm       |                
   |          1      0   -0.881   1.100     qc      0         |                
   |          2      0    0.250   1.100     qc      0         |                
   |          3      1   -0.332   1.100     qc      0         |                
   |          4      1    0.250   1.100     qc      0         |                
   |         loc     2    0.000   1.100     pn      0         |                
   |                                                          |                
   | Augmentation charge Rinner = 0.769                       |                
   | Partial core correction Rc = 0.769                       |                
   ------------------------------------------------------------                
   | "2|1.1|14|18|21|20UU:21UU(qc=7)[]"                       |                
   ------------------------------------------------------------                
   |      Author: Chris J. Pickard, Cambridge University      |                
   ============================================================                
 
 Doing a self consistent calculation for the test configuration
 
 Atomic calculation performed for O: 1s2 2s2 2p4
 
 Converged in 61 iterations to an ae energy of -2040.902 eV
 
 ---------------------------------------
 AE eigenvalue nl 10 =      -18.91475256
 AE eigenvalue nl 20 =       -0.88057101
 AE eigenvalue nl 21 =       -0.33186952
 ---------------------------------------
 PS eigenvalue nl 20 =       -0.88059206
 PS eigenvalue nl 21 =       -0.33182157
 ---------------------------------------
 Maximum eigenvalue error:   4.80E-05
 
 Derived cutoff energies: C=  14 M=  17 F=  20 E=  22
 
 
 ***************************************
 
 Atomic calculation performed for Ca: 1s2 2s2 2p6 3s2 3p6 4s2
 
 Converged in 54 iterations to an ae energy of -18512.579 eV
 
 Identity difference: 3.06E-03
 
   ============================================================                
   | Pseudopotential Report - Date of generation  2-10-2019   |                
   ------------------------------------------------------------                
   | Element: Ca Ionic charge: 10.00 Level of theory: PBE     |                
   | Atomic Solver: Koelling-Harmon                           |                
   |                                                          |                
   |               Reference Electronic Structure             |                
   |         Orbital         Occupation         Energy        |                
   |            3s              2.000           -1.731        |                
   |            3p              6.000           -1.029        |                
   |            4s              2.000           -0.138        |                
   |                                                          |                
   |                 Pseudopotential Definition               |                
   |        Beta     l      e      Rc     scheme   norm       |                
   |          1      0   -1.731   2.005     qc      0         |                
   |          2      0   -0.138   2.005     qc      0         |                
   |          3      1   -1.029   2.005     qc      0         |                
   |          4      1    0.250   2.005     qc      0         |                
   |          5      2    0.000   2.005     qc      0         |                
   |          6      2    0.250   2.005     qc      0         |                
   |         loc     3    0.000   2.005     pn      0         |                
   |                                                          |                
   | Augmentation charge Rinner = 1.401                       |                
   | Partial core correction Rc = 1.401                       |                
   ------------------------------------------------------------                
   | "3|2|8|10|12|30U:40U:31UU:32UU[]"                        |                
   ------------------------------------------------------------                
   |      Author: Chris J. Pickard, Cambridge University      |                
   ============================================================                
 
 Doing a self consistent calculation for the test configuration
 
 Atomic calculation performed for Ca: 1s2 2s2 2p6 3s2 3p6 4s2
 
 Converged in 54 iterations to an ae energy of -18512.579 eV
 
 ---------------------------------------
 AE eigenvalue nl 10 =     -145.13796065
 AE eigenvalue nl 20 =      -15.22783186
 AE eigenvalue nl 21 =      -12.30141395
 AE eigenvalue nl 30 =       -1.73058917
 AE eigenvalue nl 31 =       -1.02927856
 AE eigenvalue nl 40 =       -0.13841228
 ---------------------------------------
 PS eigenvalue nl 30 =       -1.73040443
 PS eigenvalue nl 31 =       -1.02910846
 PS eigenvalue nl 40 =       -0.13834496
 ---------------------------------------
 Maximum eigenvalue error:   1.85E-04
 
 Derived cutoff energies: C=   6 M=   6 F=   9 E=   9
 
 
 ***************************************
 
 Pseudo atomic calculation performed for O 2s2 2p4
 
 Converged in 23 iterations to a total energy of -432.2435 eV
 
 
 Pseudo atomic calculation performed for Ca 3s2 3p6 4s2
 
 Converged in 20 iterations to a total energy of -1002.3507 eV
 
 Calculation parallelised over 2 processes.
 Data is distributed by k-point(2-way)

 ************************************ Title ************************************
 CASTEP calculation from Materials Studio

 ***************************** General Parameters ******************************
  
 output verbosity                               : normal  (1)
 write checkpoint data to                       : CaO-B1.check
 type of calculation                            : geometry optimization
 stress calculation                             : on
 density difference calculation                 : off
 electron localisation func (ELF) calculation   : off
 Hirshfeld analysis                             : off
 unlimited duration calculation
 timing information                             : on
 memory usage estimate                          : on
 write final potential to formatted file        : off
 write final density to formatted file          : off
 write BibTeX reference list                    : on
 write OTFG pseudopotential files               : on
 checkpoint writing                             : both castep_bin and check files
  
 output         length unit                     : A
 output           mass unit                     : amu
 output           time unit                     : ps
 output         charge unit                     : e
 output           spin unit                     : hbar/2
 output         energy unit                     : eV
 output          force unit                     : eV/A
 output       velocity unit                     : A/ps
 output       pressure unit                     : GPa
 output     inv_length unit                     : 1/A
 output      frequency unit                     : cm-1
 output force constant unit                     : eV/A**2
 output         volume unit                     : A**3
 output   IR intensity unit                     : (D/A)**2/amu
 output         dipole unit                     : D
 output         efield unit                     : eV/A/e
 output        entropy unit                     : J/mol/K
  
 wavefunctions paging                           : none
 random number generator seed                   : randomised (143716569)
 data distribution                              : optimal for this architecture
 optimization strategy                          : maximize speed(+++)

 *********************** Exchange-Correlation Parameters ***********************
  
 using functional                               : Perdew Burke Ernzerhof
 relativistic treatment                         : Koelling-Harmon
 DFT+D: Semi-empirical dispersion correction    : off

 ************************* Pseudopotential Parameters **************************
  
 pseudopotential representation                 : reciprocal space
 <beta|phi> representation                      : reciprocal space
 spin-orbit coupling                            : off

 **************************** Basis Set Parameters *****************************
  
 plane wave basis set cut-off                   :   489.8000   eV
 size of standard grid                          :     1.5000
 size of   fine   gmax                          :    17.0074   1/A
 largest prime factor in FFT                    :          5
 finite basis set correction                    : automatic
 number of sample energies                      :          3
           sample  spacing                      :     5.0000   eV

 **************************** Electronic Parameters ****************************
  
 number of  electrons                           :  16.00    
 net charge of system                           :  0.000    
 treating system as non-spin-polarized
 number of bands                                :          8

 ********************* Electronic Minimization Parameters **********************
  
 Method: Treating system as non-metallic,
         and number of  SD  steps               :          1
         and number of  CG  steps               :          4
  
 total energy / atom convergence tol.           : 0.2000E-05   eV
 eigen-energy convergence tolerance             : 0.5000E-06   eV
 max force / atom convergence tol.              : ignored
 convergence tolerance window                   :          3   cycles
 max. number of SCF cycles                      :        100
 periodic dipole correction                     : NONE

 ************************** Density Mixing Parameters **************************
  
 density-mixing scheme                          : Pulay
 max. length of mixing history                  :         20
 charge density mixing amplitude                : 0.5000    
 cut-off energy for mixing                      :  489.8       eV
 charge density mixing g-vector                 :  1.500       1/A

 ********************** Geometry Optimization Parameters ***********************
  
 optimization method                            : BFGS
 variable cell method                           : fixed basis quality
 max. number of steps                           :        100
 estimated bulk modulus                         :  500.0       GPa
 estimated <frequency>                          :  1668.       cm-1
 geom line minimiser                            : on
 with line minimiser tolerance                  :     0.4000
 total energy convergence tolerance             : 0.2000E-04   eV/atom
        max ionic |force| tolerance             : 0.5000E-01   eV/A
 max ionic |displacement| tolerance             : 0.2000E-02   A
   max |stress component| tolerance             : 0.1000       GPa
 convergence tolerance window                   :          2   steps
 backup results every                           :          5   steps

 *******************************************************************************
  
 
                           -------------------------------
                                      Unit Cell
                           -------------------------------
        Real Lattice(A)                      Reciprocal Lattice(1/A)
   0.0000000   2.4052500   2.4052500       -1.3061398   1.3061398   1.3061398
   2.4052500   0.0000000   2.4052500        1.3061398  -1.3061398   1.3061398
   2.4052500   2.4052500   0.0000000        1.3061398   1.3061398  -1.3061398
 
                       Lattice parameters(A)       Cell Angles
                    a =    3.401537          alpha =   60.000000
                    b =    3.401537          beta  =   60.000000
                    c =    3.401537          gamma =   60.000000
 
                       Current cell volume =   27.829837       A**3
 
                           -------------------------------
                                     Cell Contents
                           -------------------------------
                         Total number of ions in cell =    2
                      Total number of species in cell =    2
                        Max number of any one species =    1
 
            xxxxxxxxxxxxxxxxxxxxxxxxxxxxxxxxxxxxxxxxxxxxxxxxxxxxxxxxxxxx
            x  Element    Atom        Fractional coordinates of atoms  x
            x            Number           u          v          w      x
            x----------------------------------------------------------x
            x  O            1         0.500000   0.500000   0.500000   x 
            x  Ca           1         0.000000   0.000000   0.000000   x 
            xxxxxxxxxxxxxxxxxxxxxxxxxxxxxxxxxxxxxxxxxxxxxxxxxxxxxxxxxxxx
 
 
                         No user defined ionic velocities
 
                           -------------------------------
                                   Details of Species
                           -------------------------------
 
                               Mass of species in AMU
                                    O   15.9989996
                                    Ca   40.0800018
 
                          Electric Quadrupole Moment (Barn)
                                    O   -0.0255800 Isotope 17
                                    Ca   -0.0408000 Isotope 43
 
                          Files used for pseudopotentials:
                                    O 2|1.1|14|18|21|20UU:21UU(qc=7)[]
                                    Ca 3|2|8|10|12|30U:40U:31UU:32UU[]
 
                           -------------------------------
                              k-Points For BZ Sampling
                           -------------------------------
                       MP grid size for SCF calculation is  5  5  5
                            with an offset of   0.000  0.000  0.000
                       Number of kpoints used =            10
 
                           -------------------------------
                               Symmetry and Constraints
                           -------------------------------
 
                      Maximum deviation from symmetry =  0.00000         ANG
 
                      Number of symmetry operations   =          48
         There are no ionic constraints specified or generated for this cell
                      Point group of crystal =    32: Oh, m-3m, 4/m -3 2/m
                      Space group of crystal =   225: Fm-3m, -F 4 2 3
 
             Set iprint > 1 for details on symmetry rotations/translations
 
                         Centre of mass is NOT constrained
 
                         Number of cell constraints= 5
                         Cell constraints are:  1 1 1 0 0 0
 
                         External pressure/stress (GPa)
                         60.00000   0.00000   0.00000
                                   60.00000   0.00000
                                             60.00000
  
+---------------- MEMORY AND SCRATCH DISK ESTIMATES PER PROCESS --------------+
|                                                     Memory          Disk    |
| Baseline code, static data and system overhead        0.0 MB         0.0 MB |
| BLAS internal memory storage                          0.0 MB         0.0 MB |
| Model and support data                               41.6 MB         0.0 MB |
| Electronic energy minimisation requirements           2.2 MB         0.0 MB |
| Force calculation requirements                        1.0 MB         0.0 MB |
| Stress calculation requirements                       1.2 MB         0.0 MB |
|                                               ----------------------------- |
| Approx. total storage required per process           43.8 MB         0.0 MB |
|                                                                             |
| Requirements will fluctuate during execution and may exceed these estimates |
+-----------------------------------------------------------------------------+
Calculating finite basis set correction with  3 cut-off energies.
Calculating total energy with cut-off of  479.800eV.
------------------------------------------------------------------------ <-- SCF
SCF loop      Energy                           Energy gain       Timer   <-- SCF
                                               per atom          (sec)   <-- SCF
------------------------------------------------------------------------ <-- SCF
Initial  -1.16403851E+003                                         14.39  <-- SCF
      1  -1.40395942E+003                    1.19960453E+002      14.47  <-- SCF
      2  -1.44874175E+003                    2.23911665E+001      14.55  <-- SCF
      3  -1.44922624E+003                    2.42246092E-001      14.64  <-- SCF
      4  -1.44768261E+003                   -7.71815641E-001      14.73  <-- SCF
      5  -1.44757268E+003                   -5.49622297E-002      14.83  <-- SCF
      6  -1.44758662E+003                    6.96870056E-003      14.94  <-- SCF
      7  -1.44758629E+003                   -1.67687568E-004      15.05  <-- SCF
      8  -1.44758693E+003                    3.22040318E-004      15.12  <-- SCF
      9  -1.44758694E+003                    3.26321732E-006      15.23  <-- SCF
     10  -1.44758693E+003                   -5.15522568E-006      15.30  <-- SCF
     11  -1.44758693E+003                    9.19580353E-007      15.38  <-- SCF
     12  -1.44758693E+003                    7.91060238E-007      15.44  <-- SCF
------------------------------------------------------------------------ <-- SCF
 
Final energy =  -1447.586930702     eV
(energy not corrected for finite basis set)
 
Calculating total energy with cut-off of  484.800eV.
------------------------------------------------------------------------ <-- SCF
SCF loop      Energy                           Energy gain       Timer   <-- SCF
                                               per atom          (sec)   <-- SCF
------------------------------------------------------------------------ <-- SCF
Initial  -1.44760617E+003                                         15.52  <-- SCF
      1  -1.44761613E+003                    4.97780182E-003      15.59  <-- SCF
      2  -1.44761613E+003                    1.69909884E-006      15.67  <-- SCF
      3  -1.44761600E+003                   -6.44207913E-005      15.77  <-- SCF
      4  -1.44761603E+003                    1.21179218E-005      15.86  <-- SCF
      5  -1.44761601E+003                   -1.10174486E-005      15.95  <-- SCF
      6  -1.44761602E+003                    5.67904984E-006      16.02  <-- SCF
      7  -1.44761602E+003                   -1.34989653E-006      16.08  <-- SCF
      8  -1.44761601E+003                   -8.56981933E-007      16.16  <-- SCF
      9  -1.44761601E+003                   -8.03479110E-009      16.22  <-- SCF
------------------------------------------------------------------------ <-- SCF
 
Final energy =  -1447.616014035     eV
(energy not corrected for finite basis set)
 
Calculating total energy with cut-off of  489.800eV.
------------------------------------------------------------------------ <-- SCF
SCF loop      Energy                           Energy gain       Timer   <-- SCF
                                               per atom          (sec)   <-- SCF
------------------------------------------------------------------------ <-- SCF
Initial  -1.44763552E+003                                         16.30  <-- SCF
      1  -1.44765059E+003                    7.53721178E-003      16.38  <-- SCF
      2  -1.44765060E+003                    2.24373427E-006      16.45  <-- SCF
      3  -1.44765044E+003                   -7.80871418E-005      16.55  <-- SCF
      4  -1.44765048E+003                    1.73407239E-005      16.69  <-- SCF
      5  -1.44765045E+003                   -1.37228325E-005      16.78  <-- SCF
      6  -1.44765046E+003                    6.36031732E-006      16.88  <-- SCF
      7  -1.44765046E+003                   -1.16989921E-006      16.95  <-- SCF
      8  -1.44765046E+003                   -1.04307805E-006      17.03  <-- SCF
      9  -1.44765046E+003                    6.48348825E-008      17.11  <-- SCF
------------------------------------------------------------------------ <-- SCF
 
Final energy =  -1447.650457368     eV
(energy not corrected for finite basis set)
 
 For future reference: finite basis dEtot/dlog(Ecut) =      -3.063708eV
 Total energy corrected for finite basis set =   -1447.645196 eV
 
+---------------- MEMORY AND SCRATCH DISK ESTIMATES PER PROCESS --------------+
|                                                     Memory          Disk    |
| Model and support data                               52.5 MB         0.0 MB |
| Electronic energy minimisation requirements           2.2 MB         0.0 MB |
| Geometry minimisation requirements                    2.7 MB         0.0 MB |
|                                               ----------------------------- |
| Approx. total storage required per process           57.4 MB         0.0 MB |
|                                                                             |
| Requirements will fluctuate during execution and may exceed these estimates |
+-----------------------------------------------------------------------------+
 
 
 ***************** Stress Tensor *****************
 *                                               *
 *          Cartesian components (GPa)           *
 * --------------------------------------------- *
 *             x             y             z     *
 *                                               *
 *  x     -2.216543      0.000000      0.000000  *
 *  y      0.000000     -2.216543      0.000000  *
 *  z      0.000000      0.000000     -2.216543  *
 *                                               *
 *  Pressure:    2.2165                          *
 *                                               *
 *************************************************
 BFGS: finished iteration     0 with enthalpy= -1.43722318E+003 eV
  
 +-----------+-----------------+-----------------+------------+-----+ <-- BFGS
 | Parameter |      value      |    tolerance    |    units   | OK? | <-- BFGS
 +-----------+-----------------+-----------------+------------+-----+ <-- BFGS
 |  dE/ion   |   0.000000E+000 |   2.000000E-005 |         eV | No  | <-- BFGS
 |   Smax    |   5.778346E+001 |   1.000000E-001 |        GPa | No  | <-- BFGS
 +-----------+-----------------+-----------------+------------+-----+ <-- BFGS
  

================================================================================
 Starting BFGS iteration          1 ...
================================================================================
  
 +------------+-------------+-------------+-----------------+ <-- min BFGS
 |    Step    |   lambda    |   F.delta'  |    enthalpy     | <-- min BFGS
 +------------+-------------+-------------+-----------------+ <-- min BFGS
 |  previous  |    0.000000 |    0.638872 |    -1437.223185 | <-- min BFGS
 +------------+-------------+-------------+-----------------+ <-- min BFGS
  

--------------------------------------------------------------------------------
 BFGS: starting iteration         1 with trial guess (lambda=  1.000000)
--------------------------------------------------------------------------------
 
                           -------------------------------
                                      Unit Cell
                           -------------------------------
        Real Lattice(A)              Reciprocal Lattice(1/A)
   0.0000000   2.3125942   2.3125942       -1.3584712   1.3584712   1.3584712
   2.3125942  -0.0000000   2.3125942        1.3584712  -1.3584712   1.3584712
   2.3125942   2.3125942   0.0000000        1.3584712   1.3584712  -1.3584712
 
                       Lattice parameters(A)       Cell Angles
                    a =    3.270502          alpha =   60.000000
                    b =    3.270502          beta  =   60.000000
                    c =    3.270502          gamma =   60.000000
 
                Current cell volume =   24.735934 A**3
 
------------------------------------------------------------------------ <-- SCF
SCF loop      Energy                           Energy gain       Timer   <-- SCF
                                               per atom          (sec)   <-- SCF
------------------------------------------------------------------------ <-- SCF
Initial  -1.44445264E+003                                         17.34  <-- SCF
      1  -1.44951463E+003                    2.53099744E+000      17.41  <-- SCF
      2  -1.44955901E+003                    2.21886205E-002      17.50  <-- SCF
      3  -1.44770396E+003                   -9.27525207E-001      17.59  <-- SCF
      4  -1.44749968E+003                   -1.02140337E-001      17.69  <-- SCF
      5  -1.44747295E+003                   -1.33662239E-002      17.77  <-- SCF
      6  -1.44747253E+003                   -2.10247494E-004      17.84  <-- SCF
      7  -1.44747256E+003                    1.42169645E-005      17.92  <-- SCF
      8  -1.44747247E+003                   -4.49545094E-005      18.00  <-- SCF
      9  -1.44747248E+003                    9.55540007E-006      18.08  <-- SCF
     10  -1.44747249E+003                    3.37723784E-006      18.12  <-- SCF
     11  -1.44747249E+003                   -1.58534669E-007      18.19  <-- SCF
     12  -1.44747249E+003                   -8.95256819E-008      18.23  <-- SCF
------------------------------------------------------------------------ <-- SCF
 
Final energy =  -1447.472490566     eV
(energy not corrected for finite basis set)
 
 
 ***************** Stress Tensor *****************
 *                                               *
 *          Cartesian components (GPa)           *
 * --------------------------------------------- *
 *             x             y             z     *
 *                                               *
 *  x    -18.989719      0.000000      0.000000  *
 *  y      0.000000    -18.989719      0.000000  *
 *  z      0.000000      0.000000    -18.989719  *
 *                                               *
 *  Pressure:   18.9897                          *
 *                                               *
 *************************************************
  
 +------------+-------------+-------------+-----------------+ <-- min BFGS
 |    Step    |   lambda    |   F.delta'  |    enthalpy     | <-- min BFGS
 +------------+-------------+-------------+-----------------+ <-- min BFGS
 |  previous  |    0.000000 |    0.638872 |    -1437.223185 | <-- min BFGS
 | trial step |    1.000000 |    0.419162 |    -1438.203559 | <-- min BFGS
 +------------+-------------+-------------+-----------------+ <-- min BFGS
  

--------------------------------------------------------------------------------
 BFGS: improving iteration         1 with line minimization (lambda=  2.019220)
--------------------------------------------------------------------------------
 
                           -------------------------------
                                      Unit Cell
                           -------------------------------
        Real Lattice(A)              Reciprocal Lattice(1/A)
   0.0000000   2.2181576   2.2181576       -1.4163072   1.4163072   1.4163072
   2.2181576  -0.0000000   2.2181576        1.4163072  -1.4163072   1.4163072
   2.2181576   2.2181576   0.0000000        1.4163072   1.4163072  -1.4163072
 
                       Lattice parameters(A)       Cell Angles
                    a =    3.136949          alpha =   60.000000
                    b =    3.136949          beta  =   60.000000
                    c =    3.136949          gamma =   60.000000
 
                Current cell volume =   21.827661 A**3
 
------------------------------------------------------------------------ <-- SCF
SCF loop      Energy                           Energy gain       Timer   <-- SCF
                                               per atom          (sec)   <-- SCF
------------------------------------------------------------------------ <-- SCF
Initial  -1.44350594E+003                                         18.41  <-- SCF
      1  -1.44906423E+003                    2.77914555E+000      18.47  <-- SCF
      2  -1.44910831E+003                    2.20397644E-002      18.55  <-- SCF
      3  -1.44712923E+003                   -9.89540758E-001      18.66  <-- SCF
      4  -1.44692966E+003                   -9.97852206E-002      18.73  <-- SCF
      5  -1.44690478E+003                   -1.24408154E-002      18.83  <-- SCF
      6  -1.44690456E+003                   -1.09878932E-004      18.89  <-- SCF
      7  -1.44690458E+003                    1.38630105E-005      18.95  <-- SCF
      8  -1.44690456E+003                   -1.43181192E-005      19.02  <-- SCF
      9  -1.44690457E+003                    4.63141457E-006      19.08  <-- SCF
     10  -1.44690457E+003                    6.03920526E-007      19.12  <-- SCF
     11  -1.44690457E+003                   -7.46035265E-009      19.19  <-- SCF
------------------------------------------------------------------------ <-- SCF
 
Final energy =  -1446.904566804     eV
(energy not corrected for finite basis set)
 
 
 ***************** Stress Tensor *****************
 *                                               *
 *          Cartesian components (GPa)           *
 * --------------------------------------------- *
 *             x             y             z     *
 *                                               *
 *  x    -47.644897      0.000000      0.000000  *
 *  y      0.000000    -47.644897      0.000000  *
 *  z      0.000000      0.000000    -47.644897  *
 *                                               *
 *  Pressure:   47.6449                          *
 *                                               *
 *************************************************
  
 +------------+-------------+-------------+-----------------+ <-- min BFGS
 |    Step    |   lambda    |   F.delta'  |    enthalpy     | <-- min BFGS
 +------------+-------------+-------------+-----------------+ <-- min BFGS
 |  previous  |    0.000000 |    0.638872 |    -1437.223185 | <-- min BFGS
 | trial step |    1.000000 |    0.419162 |    -1438.203559 | <-- min BFGS
 |  line step |    2.019220 |    0.116177 |    -1438.736686 | <-- min BFGS
 +------------+-------------+-------------+-----------------+ <-- min BFGS
  
 BFGS: finished iteration     1 with enthalpy= -1.43873669E+003 eV
  
 +-----------+-----------------+-----------------+------------+-----+ <-- BFGS
 | Parameter |      value      |    tolerance    |    units   | OK? | <-- BFGS
 +-----------+-----------------+-----------------+------------+-----+ <-- BFGS
 |  dE/ion   |   7.567509E-001 |   2.000000E-005 |         eV | No  | <-- BFGS
 |   Smax    |   1.235510E+001 |   1.000000E-001 |        GPa | No  | <-- BFGS
 +-----------+-----------------+-----------------+------------+-----+ <-- BFGS
  

================================================================================
 Starting BFGS iteration          2 ...
================================================================================
  
 +------------+-------------+-------------+-----------------+ <-- min BFGS
 |    Step    |   lambda    |   F.delta'  |    enthalpy     | <-- min BFGS
 +------------+-------------+-------------+-----------------+ <-- min BFGS
 |  previous  |    0.000000 |    0.116177 |    -1438.736686 | <-- min BFGS
 +------------+-------------+-------------+-----------------+ <-- min BFGS
  

--------------------------------------------------------------------------------
 BFGS: starting iteration         2 with trial guess (lambda=  1.000000)
--------------------------------------------------------------------------------
 
                           -------------------------------
                                      Unit Cell
                           -------------------------------
        Real Lattice(A)              Reciprocal Lattice(1/A)
   0.0000000   2.1765733   2.1765733       -1.4433663   1.4433663   1.4433663
   2.1765733  -0.0000000   2.1765733        1.4433663  -1.4433663   1.4433663
   2.1765733   2.1765733   0.0000000        1.4433663   1.4433663  -1.4433663
 
                       Lattice parameters(A)       Cell Angles
                    a =    3.078140          alpha =   60.000000
                    b =    3.078140          beta  =   60.000000
                    c =    3.078140          gamma =   60.000000
 
                Current cell volume =   20.622908 A**3
 
------------------------------------------------------------------------ <-- SCF
SCF loop      Energy                           Energy gain       Timer   <-- SCF
                                               per atom          (sec)   <-- SCF
------------------------------------------------------------------------ <-- SCF
Initial  -1.44581807E+003                                         19.38  <-- SCF
      1  -1.44691952E+003                    5.50722817E-001      19.42  <-- SCF
      2  -1.44692830E+003                    4.39103454E-003      19.50  <-- SCF
      3  -1.44653906E+003                   -1.94620852E-001      19.61  <-- SCF
      4  -1.44649851E+003                   -2.02770833E-002      19.70  <-- SCF
      5  -1.44649388E+003                   -2.31417185E-003      19.78  <-- SCF
      6  -1.44649382E+003                   -2.73327588E-005      19.84  <-- SCF
      7  -1.44649383E+003                    5.04989589E-006      19.91  <-- SCF
      8  -1.44649383E+003                   -1.60506708E-006      19.95  <-- SCF
      9  -1.44649383E+003                   -7.35577043E-008      20.02  <-- SCF
------------------------------------------------------------------------ <-- SCF
 
Final energy =  -1446.493830420     eV
(energy not corrected for finite basis set)
 
 
 ***************** Stress Tensor *****************
 *                                               *
 *          Cartesian components (GPa)           *
 * --------------------------------------------- *
 *             x             y             z     *
 *                                               *
 *  x    -65.815732      0.000000      0.000000  *
 *  y      0.000000    -65.815732      0.000000  *
 *  z      0.000000      0.000000    -65.815732  *
 *                                               *
 *  Pressure:   65.8157                          *
 *                                               *
 *************************************************
  
 +------------+-------------+-------------+-----------------+ <-- min BFGS
 |    Step    |   lambda    |   F.delta'  |    enthalpy     | <-- min BFGS
 +------------+-------------+-------------+-----------------+ <-- min BFGS
 |  previous  |    0.000000 |    0.116177 |    -1438.736686 | <-- min BFGS
 | trial step |    1.000000 |   -0.052655 |    -1438.773485 | <-- min BFGS
 +------------+-------------+-------------+-----------------+ <-- min BFGS
  
 BFGS: finished iteration     2 with enthalpy= -1.43877348E+003 eV
  
 +-----------+-----------------+-----------------+------------+-----+ <-- BFGS
 | Parameter |      value      |    tolerance    |    units   | OK? | <-- BFGS
 +-----------+-----------------+-----------------+------------+-----+ <-- BFGS
 |  dE/ion   |   1.839908E-002 |   2.000000E-005 |         eV | No  | <-- BFGS
 |   Smax    |   5.815732E+000 |   1.000000E-001 |        GPa | No  | <-- BFGS
 +-----------+-----------------+-----------------+------------+-----+ <-- BFGS
  

================================================================================
 Starting BFGS iteration          3 ...
================================================================================
  
 +------------+-------------+-------------+-----------------+ <-- min BFGS
 |    Step    |   lambda    |   F.delta'  |    enthalpy     | <-- min BFGS
 +------------+-------------+-------------+-----------------+ <-- min BFGS
 |  previous  |    0.000000 |    0.052655 |    -1438.773485 | <-- min BFGS
 +------------+-------------+-------------+-----------------+ <-- min BFGS
  

--------------------------------------------------------------------------------
 BFGS: starting iteration         3 with trial guess (lambda=  1.000000)
--------------------------------------------------------------------------------
 
                           -------------------------------
                                      Unit Cell
                           -------------------------------
        Real Lattice(A)              Reciprocal Lattice(1/A)
   0.0000000   2.1895426   2.1895426       -1.4348169   1.4348169   1.4348169
   2.1895426  -0.0000000   2.1895426        1.4348169  -1.4348169   1.4348169
   2.1895426   2.1895426   0.0000000        1.4348169   1.4348169  -1.4348169
 
                       Lattice parameters(A)       Cell Angles
                    a =    3.096481          alpha =   60.000000
                    b =    3.096481          beta  =   60.000000
                    c =    3.096481          gamma =   60.000000
 
                Current cell volume =   20.993757 A**3
 
------------------------------------------------------------------------ <-- SCF
SCF loop      Energy                           Energy gain       Timer   <-- SCF
                                               per atom          (sec)   <-- SCF
------------------------------------------------------------------------ <-- SCF
Initial  -1.44655083E+003                                         20.17  <-- SCF
      1  -1.44668417E+003                    6.66664995E-002      20.22  <-- SCF
      2  -1.44668536E+003                    5.96267143E-004      20.30  <-- SCF
      3  -1.44664382E+003                   -2.07688336E-002      20.36  <-- SCF
      4  -1.44663996E+003                   -1.93142381E-003      20.45  <-- SCF
      5  -1.44663934E+003                   -3.10306820E-004      20.55  <-- SCF
      6  -1.44663935E+003                    3.86959666E-006      20.62  <-- SCF
      7  -1.44663934E+003                   -2.50710366E-006      20.67  <-- SCF
      8  -1.44663934E+003                    1.47118995E-006      20.72  <-- SCF
      9  -1.44663934E+003                    1.73619237E-008      20.77  <-- SCF
------------------------------------------------------------------------ <-- SCF
 
Final energy =  -1446.639343901     eV
(energy not corrected for finite basis set)
 
 
 ***************** Stress Tensor *****************
 *                                               *
 *          Cartesian components (GPa)           *
 * --------------------------------------------- *
 *             x             y             z     *
 *                                               *
 *  x    -59.928809     -0.000000      0.000000  *
 *  y     -0.000000    -59.928809      0.000000  *
 *  z      0.000000      0.000000    -59.928809  *
 *                                               *
 *  Pressure:   59.9288                          *
 *                                               *
 *************************************************
  
 +------------+-------------+-------------+-----------------+ <-- min BFGS
 |    Step    |   lambda    |   F.delta'  |    enthalpy     | <-- min BFGS
 +------------+-------------+-------------+-----------------+ <-- min BFGS
 |  previous  |    0.000000 |    0.052655 |    -1438.773485 | <-- min BFGS
 | trial step |    1.000000 |   -0.000652 |    -1438.776544 | <-- min BFGS
 +------------+-------------+-------------+-----------------+ <-- min BFGS
  
 BFGS: finished iteration     3 with enthalpy= -1.43877654E+003 eV
  
 +-----------+-----------------+-----------------+------------+-----+ <-- BFGS
 | Parameter |      value      |    tolerance    |    units   | OK? | <-- BFGS
 +-----------+-----------------+-----------------+------------+-----+ <-- BFGS
 |  dE/ion   |   1.529650E-003 |   2.000000E-005 |         eV | No  | <-- BFGS
 |   Smax    |   7.119145E-002 |   1.000000E-001 |        GPa | Yes | <-- BFGS
 +-----------+-----------------+-----------------+------------+-----+ <-- BFGS
  

================================================================================
 Starting BFGS iteration          4 ...
================================================================================
  
 +------------+-------------+-------------+-----------------+ <-- min BFGS
 |    Step    |   lambda    |   F.delta'  |    enthalpy     | <-- min BFGS
 +------------+-------------+-------------+-----------------+ <-- min BFGS
 |  previous  |    0.000000 |    0.000652 |    -1438.776544 | <-- min BFGS
 +------------+-------------+-------------+-----------------+ <-- min BFGS
  

--------------------------------------------------------------------------------
 BFGS: starting iteration         4 with trial guess (lambda=  1.000000)
--------------------------------------------------------------------------------
 
                           -------------------------------
                                      Unit Cell
                           -------------------------------
        Real Lattice(A)              Reciprocal Lattice(1/A)
   0.0000000   2.1893839   2.1893839       -1.4349209   1.4349209   1.4349209
   2.1893839  -0.0000000   2.1893839        1.4349209  -1.4349209   1.4349209
   2.1893839   2.1893839   0.0000000        1.4349209   1.4349209  -1.4349209
 
                       Lattice parameters(A)       Cell Angles
                    a =    3.096256          alpha =   60.000000
                    b =    3.096256          beta  =   60.000000
                    c =    3.096256          gamma =   60.000000
 
                Current cell volume =   20.989193 A**3
 
------------------------------------------------------------------------ <-- SCF
SCF loop      Energy                           Energy gain       Timer   <-- SCF
                                               per atom          (sec)   <-- SCF
------------------------------------------------------------------------ <-- SCF
Initial  -1.44665758E+003                                         20.94  <-- SCF
      1  -1.44663808E+003                   -9.74826192E-003      21.00  <-- SCF
      2  -1.44663808E+003                    5.81946176E-008      21.06  <-- SCF
      3  -1.44663809E+003                    2.41036560E-006      21.12  <-- SCF
      4  -1.44663808E+003                   -1.62264420E-006      21.17  <-- SCF
      5  -1.44663808E+003                   -2.34775664E-007      21.23  <-- SCF
------------------------------------------------------------------------ <-- SCF
 
Final energy =  -1446.638083935     eV
(energy not corrected for finite basis set)
 
 
 ***************** Stress Tensor *****************
 *                                               *
 *          Cartesian components (GPa)           *
 * --------------------------------------------- *
 *             x             y             z     *
 *                                               *
 *  x    -60.012333      0.000000     -0.000000  *
 *  y      0.000000    -60.012333      0.000000  *
 *  z     -0.000000      0.000000    -60.012333  *
 *                                               *
 *  Pressure:   60.0123                          *
 *                                               *
 *************************************************
  
 +------------+-------------+-------------+-----------------+ <-- min BFGS
 |    Step    |   lambda    |   F.delta'  |    enthalpy     | <-- min BFGS
 +------------+-------------+-------------+-----------------+ <-- min BFGS
 |  previous  |    0.000000 |    0.000652 |    -1438.776544 | <-- min BFGS
 | trial step |    1.000000 |   -0.000113 |    -1438.776549 | <-- min BFGS
 +------------+-------------+-------------+-----------------+ <-- min BFGS
  
 BFGS: finished iteration     4 with enthalpy= -1.43877655E+003 eV
  
 +-----------+-----------------+-----------------+------------+-----+ <-- BFGS
 | Parameter |      value      |    tolerance    |    units   | OK? | <-- BFGS
 +-----------+-----------------+-----------------+------------+-----+ <-- BFGS
 |  dE/ion   |   2.611991E-006 |   2.000000E-005 |         eV | Yes | <-- BFGS
 |   Smax    |   1.233294E-002 |   1.000000E-001 |        GPa | Yes | <-- BFGS
 +-----------+-----------------+-----------------+------------+-----+ <-- BFGS
  
 BFGS: Geometry optimization completed successfully.

================================================================================
 BFGS: Final Configuration:
================================================================================
 
                           -------------------------------
                                      Unit Cell
                           -------------------------------
        Real Lattice(A)              Reciprocal Lattice(1/A)
   0.0000000   2.1893839   2.1893839       -1.4349209   1.4349209   1.4349209
   2.1893839  -0.0000000   2.1893839        1.4349209  -1.4349209   1.4349209
   2.1893839   2.1893839   0.0000000        1.4349209   1.4349209  -1.4349209
 
                       Lattice parameters(A)       Cell Angles
                    a =    3.096256          alpha =   60.000000
                    b =    3.096256          beta  =   60.000000
                    c =    3.096256          gamma =   60.000000
 
                Current cell volume =   20.989193 A**3
 
 BFGS: Final Enthalpy     = -1.43877655E+003 eV
 BFGS: Final bulk modulus =     915.36916 GPa
 
 ***************************** Symmetrised Forces *****************************
 *                                                                            *
 *                        Cartesian components (eV/A)                         *
 * -------------------------------------------------------------------------- *
 *                   x                    y                    z              *
 *                                                                            *
 * O         1      0.00000              0.00000              0.00000         *
 * Ca        1      0.00000              0.00000              0.00000         *
 *                                                                            *
 ******************************************************************************
 
 *********** Symmetrised Stress Tensor ***********
 *                                               *
 *          Cartesian components (GPa)           *
 * --------------------------------------------- *
 *             x             y             z     *
 *                                               *
 *  x    -60.012333      0.000000     -0.000000  *
 *  y      0.000000    -60.012333      0.000000  *
 *  z     -0.000000      0.000000    -60.012333  *
 *                                               *
 *  Pressure:   60.0123                          *
 *                                               *
 *************************************************

Writing analysis data to CaO-B1.castep_bin

Writing model to CaO-B1.check
 
 A BibTeX formatted list of references used in this run has been written to 
 CaO-B1.bib
 
Initialisation time =     12.62 s
Calculation time    =      8.66 s
Finalisation time   =      0.03 s
Total time          =     21.31 s
  
Overall parallel efficiency rating: Satisfactory (68%)                          
  
Data was distributed by:-
k-point (2-way); efficiency rating: Satisfactory (69%)                          
  
Parallel notes:
1) Calculation only took 21.4 s, so efficiency estimates may be inaccurate.     
