#BIOSYM hessian 1
@Type: Hessian Update
@Units
 distance: 	A
 energy: 	Kcal/Mol
#header
@natom 19

#label
L1      L2      L3      L4      L5      L6      L7      L8      L9      L10     L11     L12     L13     L14     L15     L16     L17     L18     L19

#element
Li Li Li Li Li Li Li Li Li Li Li Li Li Li Li Li Li Li Li

#matrix
57
 2.184792643748E+03
 -1.419184407196E+01 2.199891317130E+03
 3.510870308744E+01 -4.167122657050E+01 2.144082782173E+03
 -2.342670472258E+01 -2.185012401662E+01 -6.497523078579E+00 2.216373804507E+03
 -4.105762160868E+01 -4.149935645301E+01 -1.041235661317E+01 -3.829172522681E+01 2.169180662426E+03
 -1.274412902617E+01 -4.880900016610E+01 -6.153377904605E+01 -3.293729096288E+01 -4.808840071674E+01 2.163312238319E+03
 2.801155226751E+01 1.362394719088E+01 -1.258728362818E+01 9.361446517818E+00 2.940125221360E+01 3.303314075291E+00 2.212546214295E+03
 -8.876315623507E+01 -9.919146817133E+01 -4.116487747393E+01 -8.961871124407E+01 -1.638229501313E+02 -1.259124274863E+02 6.450750291153E+01 1.855262851490E+03
 8.232351771109E+01 4.183323586531E+01 -1.151917787404E+01 4.929955488763E+01 7.102955591959E+01 6.600531756391E+01 -2.982134704296E+01 1.696628619093E+02 2.079914149335E+03
 1.512924373123E+01 4.521040987568E+01 5.248546953502E+01 2.651020325089E+01 3.939835364406E+01 6.460964394081E+01 -4.202698545991E+00 9.884213482534E+01 -6.124479951600E+01 2.180815355644E+03
 2.936082177576E+01 9.556289995532E+00 -8.251559316160E+00 1.164184342548E+01 3.344344859530E+00 1.759859702091E+01 6.885122416067E+00 1.474997432472E+00 -6.541462322850E+01 -2.926921198140E+01 2.171170151138E+03
 -7.672737391497E+01 -2.325749402954E+01 5.103340025064E+01 -4.619164238630E+01 -7.963008361001E+01 -2.536905334717E+01 3.834155689201E+01 -1.721247693957E+02 1.090002407290E+02 2.018677415788E+01 2.387499467516E+01 2.106710356512E+03
 1.563694154709E+01 -1.216852854722E+01 -3.643472084294E+01 -9.315020332890E+00 -6.782710205146E+00 -3.215599036812E+01 -1.347938039418E+01 -2.736452724730E+01 2.414398756426E+00 2.113626569995E+01 -4.717491933082E+00 1.158931063886E+01 2.214929374624E+03
 4.036042725750E+01 4.008606210588E+01 1.837931780272E+00 2.016494018535E+01 5.859794830643E+01 1.793877881126E+01 -4.286719566536E+01 1.198331971223E+02 -4.236211379441E+01 -2.603337160807E+01 -2.852408958183E+00 6.054017543257E+01 -2.005588242309E+01 2.146695323787E+03
 3.285317404053E+00 2.612344674166E+01 1.888879354558E+01 -7.668615647181E+00 1.649729817279E+01 -7.519644429322E+00 -2.811602406138E+01 2.198392927313E+01 2.222710851034E+01 -8.635155310650E+00 9.979408135366E+00 -6.639384066468E+00 -2.412740692173E+01 -7.635175691187E+01 2.143441815909E+03
 -3.464535826172E+00 4.349803204889E+01 5.646730642283E+01 8.673594459336E+00 2.480710987342E+01 3.647714648068E+01 -6.080419069447E+00 4.973697790209E+01 -6.675484560426E+00 -4.591942332140E+01 -1.879150118414E+01 -9.264535787206E+00 4.299588414145E+00 -5.281996313496E+01 -6.392895513468E+01 2.161481181912E+03
 -4.856737746241E+00 -1.230464569981E+01 -7.233603432584E+00 -2.782661837412E+00 -1.517785048966E+01 -4.057427025326E+00 1.322361233328E+01 -3.181407060076E+01 -2.092623338993E-01 5.408364427268E+00 -9.522144266429E+00 -8.307153869230E+00 4.837649501637E+00 2.857914495505E+01 2.860111302349E+01 1.771629671350E+01 2.230072282091E+03
 4.465777081851E+01 3.672453975301E+01 -3.933137982031E+00 4.899954212423E+01 8.006205413607E+01 4.940627927949E+01 -1.909154572921E+01 1.769985138736E+02 -7.792172027130E+01 -3.851459920111E+01 -1.411147025540E+01 1.044324126712E+02 1.286882914637E+01 -4.874036220876E+01 7.840288471223E+00 -1.663187536175E+01 8.093009429528E+00 2.127020098010E+03
 1.502325364191E+01 -2.227485565212E+01 -3.270549398592E+01 3.870814733795E+00 -1.907770202569E+01 -2.932631766673E+00 1.975884821592E+01 -3.952600887465E+01 -4.126807491543E+01 3.803688438322E+00 -4.177572404836E+01 1.372427608745E+01 3.796853612471E+00 4.996602416829E+01 6.591036010559E+01 4.104291888699E+01 -2.418079879292E+01 9.738958450252E-01 2.173815638032E+03
 2.659054982542E+01 3.803712080775E+01 1.581420740884E+01 2.625908156236E+01 6.206554609784E+01 3.317990801901E+01 -3.341331817213E+01 1.401007488502E+02 -3.519049921608E+01 -2.652145362646E+01 1.936756729104E+01 5.683045255312E+01 9.158930647765E-01 -6.626339473126E+01 -4.054217460842E+01 -3.082617672727E+01 2.227895720879E+01 -5.919771028456E+01 4.369505206408E+01 2.174375045492E+03
 9.201911249811E+00 1.254678042376E+01 2.471145638790E+00 2.684701655159E+00 1.958246248299E+01 1.078348689686E+00 -2.081346535320E+01 4.221811325976E+01 -5.446380883592E-01 -1.469401350620E+00 1.792786689223E+01 1.401630440771E+01 -8.713562218085E+00 -3.653034238468E+01 -3.491432615374E+01 -1.451405330602E+01 1.425504800991E+01 -7.930598714438E+00 3.120076119876E+01 -2.992716519707E+01 2.220346649811E+03
 -3.427636739832E+00 -4.518992099065E+01 -5.879691151158E+01 -2.193489190174E+01 -3.991057132836E+01 -5.778932380380E+01 7.408913632496E+00 -9.896762372089E+01 3.351277896322E+01 5.176775160603E+01 5.894183560565E+00 -1.062744516692E+01 -2.097445261856E+01 3.333905783894E+01 2.326733093049E+01 4.948239843690E+01 -1.158267353005E+01 3.545080486613E+01 -2.555893899102E+01 3.708495847210E+01 1.026687791768E+01 2.187632007007E+03
 -5.923240141398E+01 -7.874479540245E+00 5.428023015081E+01 -2.845010468614E+01 -5.162260007007E+01 -2.384420025103E+00 3.073897848094E+01 -1.068419690542E+02 7.360812361531E+01 1.971839807362E+00 1.616841858584E+01 -9.989583607082E+01 1.773067607737E+01 4.511264967601E+01 -1.872316373760E+00 -1.515650445188E+01 -6.050439740849E+00 6.880175295410E+01 1.157828667950E+01 3.729067438952E+01 1.168672399378E+01 4.736683192725E+00 2.162577509630E+03
 -3.705334069533E+01 -1.405955863689E+00 4.388697370751E+01 -2.658624739900E+01 -4.990301314336E+01 -1.573350097674E+00 2.482461741121E+01 -1.099893905902E+02 3.844522494289E+01 -1.047202189121E+01 -2.149429068109E+01 -8.645961579424E+01 3.877048301584E+00 2.654901882871E+01 -1.806236088814E+01 -3.268674657786E+01 -5.347721508933E+00 7.044357341692E+01 -4.812048356923E-01 4.228343827266E+01 1.281793617261E+01 6.043950807843E+00 -6.615819834071E+01 2.159109076337E+03
 7.262755816787E+00 -5.985982806121E+01 -8.480239391203E+01 -3.973176284736E+01 -6.551268167616E+01 -8.747183906154E+01 1.004102010735E-01 -1.624011306540E+02 3.121701214027E+01 6.809987804551E+01 -1.094358814653E+01 -2.546812861242E+01 -4.563039163140E+01 3.012938469978E+01 5.542096850730E+00 5.511019550285E+01 -1.195795221742E+01 7.930313495232E+01 -3.402094878695E+01 5.800119933745E+01 8.236298389000E+00 -7.567225884509E+01 2.407125383282E+00 -1.814604939404E+01 2.102731188168E+03
 6.201213781619E+01 1.004757226329E+02 7.211439802027E+01 6.586553397859E+01 1.294462021844E+02 1.165570161175E+02 -5.571474265090E+01 3.061886090399E+02 -1.300991945205E+02 -1.015551690073E+02 -7.567976253332E+00 1.067309214721E+02 2.159615562420E+01 -1.189969352316E+02 -6.007665336295E+01 -8.343423664862E+01 3.565560828677E+01 -1.195939182352E+02 5.798548741628E+01 -1.196672218690E+02 -4.362518465555E+01 1.042248215977E+02 5.931860891878E+01 4.977675426905E+01 1.437833968961E+02 1.962506587606E+03
 2.554133365048E+01 2.356985461961E+01 1.598356296282E+01 2.990087821199E+01 3.750148481435E+01 5.124707826898E+01 -3.760821732849E+00 9.952527227658E+01 -7.264886549905E+01 -3.760776087844E+01 -1.878068785282E+01 4.437537921368E+01 2.165179131532E+01 1.444707806861E+00 3.675217808356E+01 4.724316402297E+00 -5.122401519111E+00 -4.689580824618E+01 -2.376250371596E+01 -1.672929118037E+01 6.750458414700E+00 2.616785898414E+01 2.350733597494E+01 2.346574414462E+01 4.653143785648E+01 -6.952768917777E+01 2.189961442278E+03
 3.532101710185E+01 -8.901058434373E+00 -4.080949458547E+01 3.346467741391E+01 3.060303656610E+01 2.251849266816E+01 6.930292391257E+00 7.699651067870E+01 -7.414271878887E+01 -5.079655320907E+00 -2.148095078657E+01 7.892555793320E+01 1.773634398437E+01 3.439819370414E+01 8.943578400379E+01 5.710780810885E+01 -2.066644608661E+01 -7.012752616311E+01 -6.378926583042E+01 3.410818771654E+00 2.433257192255E+01 -1.200114491836E+01 5.503115970056E+01 6.394710054349E+01 1.770249511109E+01 -6.431902559654E+00 -5.623979696430E+01 2.117501690558E+03
 -2.029939466336E+00 -1.431604428720E+01 -6.862466212618E+01 -5.554696971499E+00 7.207541640652E+01 -8.427965310431E+01 -8.834343606251E+01 1.455206194114E+02 1.338834914476E+02 1.055444518262E+02 2.089154310691E+02 7.644066964369E+01 -4.088945995054E+01 -1.162342195397E+02 -1.041135211186E+02 4.497965951797E+01 6.014634202511E+01 -5.484091893389E+01 1.639812731714E+02 -1.433142529472E+02 -1.002356800478E+02 -2.744864246861E+01 7.555037127862E+01 1.661515675727E+02 1.421841161505E+01 -7.685827730865E+01 6.794109986398E+01 4.920377683654E+01 1.340209004910E+03
 -5.465469141259E+01 -3.906755913619E+01 -9.343103788732E+00 -3.244589953463E+01 -4.657243785871E+01 -5.430315704987E+01 1.858429947846E+01 -1.101768370415E+02 1.148752111882E+02 5.670339798592E+01 6.030778985566E+01 -6.222393908539E+01 -1.464604739086E+00 3.801900782959E+01 1.706880101219E+00 2.862141868648E+01 -2.213557145743E+00 4.580315821726E+01 2.383548301583E+01 2.236022808969E+01 3.969405673908E-01 -3.493589338620E+01 -3.921200990878E+01 -3.663359189808E+00 -2.672574093340E+01 1.013613078635E+02 4.700032186151E+01 2.930438434322E+01 -1.501443145171E+02 2.148353529649E+03
 3.069681409817E+01 5.774165256831E+01 3.550469746123E+01 1.627369227798E+01 6.100319455634E+01 3.134736298572E+01 -4.785216665574E+01 1.278744742883E+02 -3.260378865657E+01 -4.214620458699E+01 2.590120551820E+00 3.719307946343E+01 -1.816820412938E+01 -1.136379557014E+02 -1.097526277402E+02 -8.449876993183E+01 3.844846872774E+01 -3.460045863456E+01 7.692640901245E+01 -7.838522611433E+01 -4.758360468855E+01 5.456527385958E+01 2.450359934634E+01 3.016627553022E+00 4.774399407235E+01 -1.517749787946E+02 8.421930547247E+00 7.687650896230E+01 -1.181821241995E+02 4.182185988902E+01 2.087144290715E+03
 2.718085842443E+01 2.745238249226E+01 4.972943858902E+00 1.056785362487E+01 3.361356486452E+01 1.317415402668E+01 -2.802899169785E+01 6.902253063427E+01 -3.220951098248E+01 -2.047256719242E+01 -8.257508113730E+00 3.219949069101E+01 -1.468582971055E+01 -6.104859537023E+01 -5.312934662649E+01 -3.814777093913E+01 1.837746221474E+01 -2.146818602699E+01 3.052223564595E+01 -3.863534301788E+01 -2.336189298845E+01 2.283574958549E+01 2.410744114434E+01 6.488905743209E+00 1.320366555133E+01 -7.673846349699E+01 1.401723107157E+00 3.061244004485E+01 -4.656647596629E+01 3.162627863999E+01 -7.738373447692E+01 2.198657684339E+03
 -3.185197716683E+01 2.232691329250E+01 6.522017486217E+01 9.446073980234E-01 -1.944345578854E-01 3.656061768822E+01 1.400939383552E+01 1.188870210578E+01 2.094972059218E+01 -2.925629390030E+01 1.134799591834E+01 -4.314576954044E+01 2.699862849651E+01 9.432331290203E+00 -5.653419513631E+00 -3.176154328151E+01 2.461314852426E+00 7.728222288807E+00 2.032826115032E+01 -4.630357416890E+00 1.252080029446E+00 3.484162424861E+01 -4.299357331108E+01 -3.061418635812E+01 5.544813889858E+01 -3.249023640203E+01 -7.940826686792E+00 2.539377527018E+01 4.108261945252E+01 -4.991273876426E+00 -1.093836672061E+01 4.530273118260E+00 2.195126127161E+03
 6.136415320185E+01 1.996158435361E+01 -3.206444687350E+01 2.548984337062E+00 2.179851141885E+01 -7.767053273733E+00 -4.220999707467E+01 3.455241676831E+01 -7.466640380764E+01 -1.624586598689E+01 -4.927783464336E+01 4.600219904144E+01 -4.468983072068E+01 -7.732677692208E+01 -6.931153248913E+01 -3.579625908233E+01 1.757517496413E+01 5.314854292731E+00 8.350550916436E+00 -2.207684607050E+01 -2.449439337735E+01 3.446454160642E+00 4.290391104962E+01 -1.124243976440E+01 -5.263038033093E+01 -5.966648630051E+01 8.735851762799E+00 4.443413010875E+01 4.281333147322E+01 7.024556694671E+01 -9.284470021211E+01 -6.194362685662E+01 3.661122143166E+01 2.094939339059E+03
 -1.469829185397E+02 3.066196915624E+01 1.823296710374E+02 1.018071725593E+01 -9.727183143601E+00 9.435942887125E+01 8.761686596805E+01 1.354222648843E+01 1.443373685691E+02 -4.910691641285E+01 8.324280148383E+01 -1.292731881587E+02 1.195403798080E+02 1.037041550519E+02 6.988145136170E+01 -4.041731030507E+01 -1.439800854945E+01 -2.991369535384E+01 4.063547554436E+01 3.384382481221E+00 3.485628080134E+01 8.071735880535E+01 -1.333048046463E+02 -3.482111468266E+01 2.181749709175E+02 -1.262616300490E+01 -2.837511446813E+01 -1.479191911940E+01 1.103570792403E+01 -1.032472893681E+02 8.444821844170E+01 8.511729554974E+01 -1.462330292674E+02 2.823717876894E+02 1.512149896979E+03
 -2.666025274163E+01 7.869175987785E+01 1.353058993217E+02 1.800946413587E+01 3.674331407891E+01 9.415130474319E+01 3.431208958980E+00 9.567446341637E+01 -1.248687415279E+01 -9.309427774849E+01 -1.499602874668E+01 -4.456907377572E+01 3.771262112858E+01 -4.885992725207E+01 -6.728535895703E+01 -1.178420447097E+02 2.102840475432E+01 -1.663048879133E+01 5.928238332621E+01 -4.296086139492E+01 -1.395309134121E+01 9.874168525453E+01 -5.589279068107E+01 -6.459324546178E+01 1.262418584875E+02 -1.487155883799E+02 -1.881144740201E+01 7.741818963846E+01 1.179318850779E+02 4.495391241169E+01 -1.053428310783E+02 -3.917424390923E+01 -8.451951084037E+01 -8.327575627578E+00 -1.852826156736E+02 2.017307772458E+03
 -6.101693458133E+01 3.159677818529E+01 9.680123311564E+01 2.016208707604E+01 2.203133948982E+01 6.535884971732E+01 3.623594914217E+01 6.548662283959E+01 5.009001070627E+01 -4.066147473343E+01 3.703194549773E+01 -3.543139887469E+01 6.337385182846E+01 2.922090671317E+01 2.685300928535E+01 -3.551022387820E+01 -1.812843177031E+00 -4.982428491373E+01 2.798616221822E+01 -2.079567498313E+01 1.211410659809E+01 5.701220993745E+01 -4.822720484439E+01 -3.210467495660E-01 1.389197304169E+02 -5.258281855905E+01 -2.594657964588E+01 -1.841491974660E+01 -1.314011396460E+01 -3.577795732411E+01 1.892619304817E+01 3.045326239148E+01 -7.469607986868E+01 1.368265230528E+02 -3.763037605484E+02 -1.124900341738E+02 2.034915622530E+03
 6.461142061280E+01 -2.566432794883E+01 -8.465290152243E+01 -3.850355622589E+01 -4.506482185154E+01 -7.272372993472E+01 -4.423764955183E+01 -1.188635531181E+02 -5.594311120931E+01 3.205820088596E+01 -6.138194787798E+01 -1.824483748493E+00 -8.226156877553E+01 -4.645609895056E+01 -6.982025424614E+01 6.783676340202E+00 7.804912407422E+00 1.050915185495E+02 -1.996261629902E+01 3.515116791135E+01 -1.931946115515E+01 -5.436512937121E+01 2.425099978007E+01 -5.335196902791E+01 -1.797268764818E+02 5.700140980140E+01 4.556267310378E+01 8.275974771844E+01 1.050541311904E+02 5.979837251666E+01 -5.951103664115E+01 -5.412656294726E+01 7.230396684671E+01 -2.100796670281E+02 4.908215012227E+02 7.554950040731E+01 2.754008393178E+02 1.827065343723E+03
 8.555456206499E+00 -2.124287761128E+01 -3.363276263634E+01 -2.772589063126E+01 -3.635498872586E+01 -4.583536698991E+01 -1.143270269583E+01 -9.053993484621E+01 1.205462018778E+01 2.789770802103E+01 -1.110697621404E+01 -2.622579309472E+01 -3.481845797392E+01 -7.456075067137E+00 -3.180694054450E+01 6.893056981464E+00 2.513071266318E+00 6.369899293648E+01 -9.638309629770E-01 2.440315257681E+01 -7.332058451031E+00 -3.157151756313E+01 -7.026990109534E+00 -3.157336293179E+01 -8.455104358033E+01 5.565570233665E+01 3.473349788078E+01 5.013116378407E+01 1.744088247596E+01 -7.362586092770E-01 -1.469154233743E+01 -1.415962937983E+01 2.613874781749E+01 -7.104656924998E+01 1.758844881013E+02 3.700927142355E+01 1.064107220494E+02 -1.638766001240E+02 2.168423754768E+03
 1.082593674412E+02 5.884750297597E+01 -2.535527895872E+01 7.078475061446E+01 1.213464591395E+02 7.597001325500E+01 -5.823108184621E+01 2.796471062793E+02 -1.833050658561E+02 -6.379352354703E+01 -3.987845292423E+01 1.717075956566E+02 -1.798345191612E+00 -8.990153334492E+01 3.106749209496E+00 -8.443852342341E+00 1.522214885904E+01 -1.351380414776E+02 -1.253298390114E+01 -8.837244814429E+01 -2.390019953929E+01 4.632876539685E+01 1.198214726640E+02 9.608443510059E+01 6.450825991318E+01 -2.057287519319E+02 -8.378544796092E+01 -9.290021965852E+01 -3.693022977405E+01 1.185476981434E+02 -7.681285799932E+01 -5.550984345698E+01 3.325334892736E+01 -7.980723220637E+01 1.611952158555E+02 -2.261008311173E+00 4.029483400002E+01 -1.505447118005E+01 3.567166263651E+01 1.980981742654E+03
 3.493304326268E+01 -1.048576606569E+01 -5.308289333198E+01 1.092209164281E+01 1.909269639481E+01 -1.716309834408E+01 -1.574990460198E+01 3.445420524230E+01 -3.414225428066E+01 1.607007497919E+01 -7.414745134416E+00 5.901115672145E+01 -1.674365990273E+01 -1.521251691025E+01 1.137803871200E+01 2.711753167811E+01 -6.554740353987E-01 -3.259672175639E+01 -1.656225970771E+01 -1.059099489204E+01 -3.003859093023E+00 -2.062654399685E+01 5.025584116786E+01 4.444383128765E+01 -2.480981540626E+01 -1.537706251537E+00 -6.935714461014E+00 -4.085104694628E+01 -5.656781271674E+01 1.180302786554E+01 5.617911595037E+00 -5.778394849412E+00 3.791519288283E+01 -2.163660182397E+01 1.027055849958E+02 6.838054031228E+01 4.512375019244E+01 -2.660246199363E+01 -3.516905875045E+00 -5.893932065201E+01 2.202581143301E+03
 -2.924288391090E+01 3.179419613652E+01 8.502336437963E+01 -2.484800359424E+00 -8.700447689826E+00 5.105357649297E+01 1.448838778969E+01 -5.769959420851E-01 -6.534731318589E-02 -4.779690811933E+01 -9.487106422421E+00 -6.295054302786E+01 2.802516798727E+01 1.090569731879E+01 -1.189111932171E+01 -4.608792298590E+01 1.234551950544E+00 3.206852615710E+01 1.352072360369E+01 6.181446390728E+00 4.047472108121E+00 4.563248541715E+01 -5.986373613213E+01 -6.277284730463E+01 4.883546310424E+01 -4.258306139092E+01 -1.368693747886E+01 4.518481381723E+01 1.414883563174E+02 2.119712446239E+01 -2.144453386989E+01 -2.085875053131E+00 -5.585798549396E+01 6.969764828820E+00 -1.135617440513E+02 -1.181512857900E+02 -5.272223888969E+01 1.597455375251E+01 6.274882415096E+00 3.507948440131E+01 5.288502657905E+01 2.150015820092E+03
 1.199995393150E+01 -5.220184542337E+01 -1.019366804709E+02 1.844087931955E+01 3.601165628860E+01 -5.031255480409E+01 -1.670217029282E+01 8.233061002956E+01 3.487277838439E+01 8.538744411917E+01 1.047751626555E+02 9.893741968437E+01 2.784427647983E+00 2.953805203106E+01 8.615684418771E+01 1.300680140404E+02 -6.001884678898E+00 -8.165883389943E+01 -6.004410637984E+00 -3.685144521075E+01 -8.760146617275E+00 -6.101872146686E+01 8.326640060173E+01 1.601802630392E+02 -1.390988072863E+00 4.062552915826E+01 -1.504475695403E+01 -1.330938538104E+02 -4.316096851757E+02 -9.135243552703E+01 9.359861794187E+01 4.756510478442E+01 5.547986175458E+01 1.273170070973E+02 -6.648625874104E+01 2.075079449865E+02 -4.225511255017E+01 1.864509254767E+02 6.970038952759E+01 -6.075123730623E+01 -7.659010729050E+01 1.440079448384E+02 1.794649347512E+03
 7.666626363399E+01 -5.696852215699E+00 -3.887487005285E+01 6.164604644183E+01 1.386108694055E+01 8.822944194959E+01 5.351463830316E+01 5.769432101204E+01 -2.281311383197E+02 -7.179551473597E+01 -1.643324915112E+02 1.011581365418E+02 4.770250986252E+01 1.200752123909E+02 2.129678338525E+02 7.839252249026E+01 -6.955332747876E+01 -8.266829900101E+01 -2.099534128964E+02 8.740010817109E+01 9.632839984570E+01 -7.000387698791E+00 5.967285368802E+01 1.473441130129E+01 6.807601146973E+00 2.321619093685E+01 -1.416615102951E+02 -2.413374235143E+02 6.167331667183E+02 1.535517669535E+02 1.936248589408E+02 7.233519513370E+01 2.840165990188E+01 2.554174883749E+01 3.242614186417E+01 7.491445509381E+01 1.025014251872E+01 3.262140852275E+01 6.019801513382E+01 -1.609230821855E+02 -4.314558566730E+01 -4.827001937378E+00 3.340027410461E+01 1.452266689713E+03
 1.807180846593E+01 -7.525274113881E+01 -1.188970108726E+02 3.275611794622E+01 3.891648958357E+00 -2.715598991838E+01 4.137010930056E+01 1.481828544189E+01 -3.058597879330E+01 6.344012221519E+01 1.040085366089E+01 1.047363851463E+02 3.061041896759E+01 1.269368433088E+02 2.058725837317E+02 1.668997603361E+02 -5.285437573422E+01 -9.778418451173E+01 -1.267127569693E+02 4.636626195447E+01 6.028151947895E+01 -8.028759715087E+01 8.097870592696E+01 1.351731683493E+02 -1.266582966500E+01 1.308618750642E+02 -6.434484564602E+01 -2.455900404999E+02 -3.606366615029E+01 -4.276347080616E+01 2.324756513741E+02 1.084635315330E+02 6.229816513612E+01 1.729958093937E+02 -1.196834533696E+02 2.460900998093E+02 -6.354232236329E+01 2.318561272678E+02 1.016272071366E+02 -6.038032599455E+01 -8.403860188326E+01 1.373524475552E+02 -3.978225445684E+02 -3.836657180650E+02 1.627412969286E+03
 -8.945759233152E+01 8.459153411441E+00 1.087691789702E+02 -3.041398472752E+01 -5.790489758543E+01 2.453903707523E+01 4.668622015444E+01 -1.130485100133E+02 9.687282723916E+01 -2.146989353640E+01 2.032175870113E+01 -1.426167843751E+02 3.935578992655E+01 5.594938522540E+01 -7.927271717580E+00 -4.532433278940E+01 -5.441139119852E+00 7.953651013942E+01 2.626783500665E+01 3.978796642849E+01 1.595348246815E+01 3.204618348064E+01 -1.187018229949E+02 -9.900280060385E+01 4.492576510834E+01 4.357983482854E+01 2.150959714909E+01 8.035261011499E+01 1.307956495748E+02 -4.498871191666E+01 1.824145368980E+01 2.950005078252E+01 -8.166061144359E+01 7.302227518853E+01 -2.581686270972E+02 -1.288668731514E+02 -1.110141657543E+02 8.226252035375E+01 1.247625456816E+01 1.594876354781E+02 8.407708263501E+01 -1.078522195227E+02 1.438806252033E+02 8.001767596860E+01 1.379794999728E+02 2.047557090381E+03
 3.069257032402E+00 2.117617598861E+01 2.517719916383E+01 1.323137498707E+01 2.371876483288E+01 2.842584543479E+01 -4.699255789167E+00 5.839554797891E+01 -1.720464171458E+01 -2.311530480622E+01 2.025463188057E+00 1.231950558159E+01 1.153795165331E+01 -1.573179775075E+01 -6.424879151301E+00 -1.856128908818E+01 5.526861177104E+00 -2.445012811180E+01 1.225541130125E+01 -2.171618826785E+01 -5.611523178938E+00 2.486802588358E+01 2.889520934073E+00 6.373231625397E+00 4.049807787220E+01 -5.351586290836E+01 -1.562295218877E+01 -2.718083908052E+00 -7.629839444422E+00 1.421011316313E+01 -2.293107202561E+01 -9.214184284088E+00 -1.515329171795E+01 5.541465136165E+00 -4.647535483822E+01 -4.029328835301E+01 -3.276698608950E+01 4.009470837613E+01 2.133740472859E+01 -2.949792496661E+01 6.191838885471E+00 -1.575078389646E+01 6.572757335046E+00 1.659664939493E+00 1.762109807793E+01 -7.960232855881E+00 2.227932350284E+03
 1.191860162484E+01 2.493961169245E+01 1.779114829742E+01 1.902326629981E+01 3.670457179426E+01 2.885673944594E+01 -1.167851030370E+01 8.427718206459E+01 -2.470742347806E+01 -2.354754131843E+01 3.521913327562E+00 3.154384294043E+01 8.254732319031E+00 -3.016938312103E+01 -1.305266314127E+01 -2.116710931488E+01 9.236521116616E+00 -4.156145161264E+01 1.766536257440E+01 -3.422278162874E+01 -1.060012964910E+01 2.693586762904E+01 1.770257805265E+01 2.099775042015E+01 4.652115013100E+01 -7.048638413504E+01 -1.694824929162E+01 -8.126388627835E+00 -4.307318679772E+01 1.743155893041E+01 -3.531367381451E+01 -1.648993441315E+01 -9.140312875984E+00 -7.421296894507E-02 -3.341981133552E+01 -3.610175085879E+01 -3.176393125851E+01 4.659541417560E+01 2.613799599027E+01 -5.046279253521E+01 -2.403282267427E+00 -3.340829266727E+00 -1.327839133443E+01 1.338842786206E+01 9.306547040728E+00 1.269617883278E+01 -1.518225724027E+01 2.219365817913E+03
 -2.662940378579E+01 -5.402408501731E+01 -5.205569294956E+01 -3.922402330213E+01 -6.430338697469E+01 -7.844522084175E+01 1.633073183703E+01 -1.609191552173E+02 7.974812978595E+01 6.477324870046E+01 1.266064101788E+01 -4.864401218164E+01 -2.658668092851E+01 3.735889482602E+01 2.223579031313E+00 3.634454280992E+01 -9.768126103396E+00 6.446935563406E+01 -1.125585040649E+01 5.035995356342E+01 1.024706566187E+01 -6.000073850538E+01 -2.083855448667E+01 -1.942368322838E+01 -8.984828685570E+01 1.421522683070E+02 5.407092928296E+01 2.579300263594E+01 -3.207835950034E+01 -6.076396650162E+01 5.042344102979E+01 2.459928040491E+01 2.812245512644E+01 6.873564769657E+00 5.908783483149E+01 8.653080969403E+01 5.254117373029E+01 -6.284817979075E+01 -4.513092423754E+01 1.066404364304E+02 -6.597884614899E+00 3.850484465690E+01 -2.722549631533E+01 6.675701574206E+01 -2.915625782954E+01 -3.103930478131E+00 3.089460785891E+01 3.573275037418E+01 2.154919831955E+03
 -5.147647291627E+01 1.088370628565E+01 6.312796007451E+01 1.204139131876E+00 -2.243537446012E+00 2.920086318671E+01 2.539934803194E+01 7.511213731420E+00 5.596231213092E+01 -1.322388572297E+01 3.833421821539E+01 -4.620650131891E+01 3.851277387336E+01 2.995374665204E+01 1.630418253637E+01 -1.346869465321E+01 -1.464364510532E+00 -6.287178962794E+00 2.294288951515E+01 -4.539116387890E+00 6.137784854202E+00 2.738773192882E+01 -4.639817787309E+01 -9.529776754397E+00 7.325301463512E+01 -8.911016125420E+00 -6.002815868591E+00 3.358424863628E+00 -3.185980082562E+01 -4.105584388655E+01 2.078426219869E+01 2.567630434901E+01 -5.035563562807E+01 9.513859026392E+01 -2.452884320534E+02 -6.308771473214E+01 -1.260752270284E+02 1.637105952929E+02 5.685207525605E+01 5.668220323034E+01 3.588034485034E+01 -3.798263603913E+01 -3.086823956369E+01 4.526364199349E+01 -2.685853964804E+01 -8.830706392674E+01 -1.611323155299E+01 -1.205894489357E+01 1.927685994301E+01 2.156618766812E+03
 -1.448042771134E+00 -7.992229045832E+00 -3.385117311160E+00 -2.483940600039E+01 -3.722654393875E+01 -2.460064577373E+01 -9.251309483798E-01 -9.031442105032E+01 9.461297326169E+00 5.794916391391E+00 -2.682197970691E+01 -4.377704135806E+01 -2.332078622515E+01 -4.772271526386E+00 -3.578436141313E+01 -1.902292694946E+01 1.193939724648E+00 6.342254270936E+01 -8.960319034132E-01 2.888999624912E+01 -5.974055557274E-01 -1.230569778930E+01 -2.537810865955E+01 -5.557024282459E+01 -5.950302865458E+01 4.174389390584E+01 2.986810731562E+01 6.089195844201E+01 9.948154274652E+01 1.161086193130E+01 -2.165567550490E+01 -1.468313743551E+01 5.779903040850E+00 -6.740746822312E+01 1.222257054876E+02 -1.265243256441E+01 7.727377169138E+01 -1.431368259012E+02 -6.295277978594E+01 4.742033767442E+01 1.415948012294E+01 -2.375554047738E+01 1.326945436472E+02 3.524174791705E+01 1.405902350660E+02 -2.525448346947E+01 1.457939397744E+01 2.267860041097E+01 -3.038121823542E+01 4.096279586517E+01 2.172817805488E+03
 -1.125790865444E+01 4.131532023629E+01 7.418421888628E+01 8.834735612240E+00 1.762010745926E+01 5.479917934410E+01 -1.057943374227E+00 5.434103131493E+01 -1.766061137976E+01 -5.074169985155E+01 -4.581189468771E+00 -2.681286999971E+01 2.220857131844E+01 -1.813530137824E+01 -2.569672005948E+01 -5.090899822123E+01 9.377568330615E+00 1.691572931955E+00 2.582079507363E+01 -2.017073767093E+01 -7.739957734540E+00 5.163370846778E+01 -3.253402801255E+01 -3.551669144278E+01 6.121507162348E+01 -8.203651358624E+01 -1.844029408346E+01 3.698744734756E+01 7.047589354955E+01 2.957208204629E+01 -4.860330809131E+01 -1.783956481284E+01 -4.589054108138E+01 -6.508180785730E+00 -8.427248670550E+01 -1.133641438059E+02 -4.819116824048E+01 2.249709735947E+01 1.381905935347E+01 -8.718889223754E+00 3.797118215409E+01 -7.110689465045E+01 1.090118261862E+02 2.157638705314E+01 1.309596169420E+02 -6.993241406200E+01 -2.098385622239E+01 -1.592127262028E+01 5.124953935222E+01 -2.952873859650E+01 -1.011594409148E+01 2.175619008128E+03
 -8.572123789196E+00 -5.338469251003E+01 -6.401427869668E+01 -3.356253395534E+01 -5.883002321538E+01 -7.331494770308E+01 1.099337938846E+01 -1.458874365160E+02 4.689239685430E+01 5.980462482210E+01 -2.173588423226E+00 -3.040066227857E+01 -2.975376510454E+01 3.732987194100E+01 1.353047181458E+01 4.611456416006E+01 -1.287454566356E+01 6.034126528858E+01 -2.770595208949E+01 5.246935052939E+01 1.260918430670E+01 -6.281284986370E+01 -6.589243581515E+00 -1.409613650611E+01 -1.010908182068E+02 1.340476154364E+02 4.130062494920E+01 8.565376543309E+00 5.626312559527E+00 -3.883022195384E+01 5.522296175513E+01 2.228158498475E+01 3.848711838531E+01 -1.298168700632E+01 1.149846596495E+02 1.018591016062E+02 8.099876039400E+01 -9.772179730721E+01 -5.294448309419E+01 7.534358356027E+01 -1.613436536705E+01 4.198087491556E+01 -2.191460745909E+01 7.445202516847E+00 -4.361079772249E+01 2.108714456711E+01 3.241581709034E+01 3.741504655344E+01 -7.890764972828E+01 3.941701608395E+01 -3.525270312702E+01 5.403886716037E+01 2.159385804182E+03
 4.422855858387E+01 1.537936338080E+01 -2.502309272751E+01 3.075390591111E+01 5.007290751376E+01 2.276555336003E+01 -2.029827932521E+01 1.125314274175E+02 -6.933351284310E+01 -1.585641557653E+01 -1.223110271042E+01 8.105082816722E+01 -4.015199232170E-01 -2.897647988794E+01 1.495473121660E+01 1.010914296447E+01 2.830483814010E+00 -6.687542721596E+01 -1.227900032042E+01 -3.391566622220E+01 -5.766895419480E+00 9.425053974278E+00 5.827414878942E+01 5.475107437469E+01 2.454551681504E+01 -6.829707958371E+01 -3.458020822023E+01 -5.755071623438E+01 -3.894216574666E+01 3.813162436964E+01 -1.308877305292E+01 -1.387031572240E+01 2.148350345538E+01 -1.483214866183E+01 5.214203157922E+01 2.470687514001E+01 8.008387200004E+00 2.141019091060E+01 2.493662366849E+01 -1.070178493752E+02 -3.374689076636E+01 3.369959820883E+01 -6.994694765728E+01 -8.164260843605E+01 -8.275745804484E+01 8.094473752875E+01 -9.708388617755E+00 -2.050042084264E+01 3.593485509121E+01 1.973665410755E+01 3.420340234236E+01 1.326005343692E+01 2.435236652009E+01 2.189800213753E+03