#BIOSYM hessian 1
@Type: Hessian Update
@Units
 distance: 	A
 energy: 	Kcal/Mol
#header
@natom 19

#label
L1      L2      L3      L4      L5      L6      L7      L8      L9      L10     L11     L12     L13     L14     L15     L16     L17     L18     L19

#element
Li Li Li Li Li Li Li Li Li Li Li Li Li Li Li Li Li Li Li

#matrix
57
 3.596438888931E-01
 -6.279729892779E-01 3.259351947820E+00
 7.800890128199E-02 -1.100622366066E+00 1.897517855204E+01
 -2.654508585632E-02 -2.527924173755E-01 3.386221923940E-01 1.251401460757E+00
 -1.782876450529E-01 2.505942360077E-01 -6.133772268658E-01 -8.812966751217E-01 1.577378315351E+00
 2.255247783924E-01 -6.195103396150E-01 5.380634070845E-02 1.106869190288E-01 -3.737020058836E-02 1.862050737482E+01
 1.482289009806E-01 -4.860947208499E-01 7.373925741572E-01 -2.363224396281E-01 2.709797943679E-01 7.381678897367E-01 4.066668709222E+00
 2.433456874739E-01 -7.871541478604E-01 1.039265613050E+00 1.106484380962E+00 -1.876157256010E+00 1.054479218130E+00 3.152849013671E+00 7.945753406962E+00
 2.707263209029E-01 -7.661808717775E-01 2.328953319692E-01 4.198051879996E-01 -7.766728563400E-01 4.104624333231E-01 1.669875872465E+00 4.407761370382E+00 2.027289882222E+01
 -2.676391224983E-01 8.377577330786E-01 -1.200845546780E+00 -4.088904237825E-01 7.904726571173E-01 -1.245081148161E+00 -2.690026276000E+00 -2.028966385811E+00 -1.674446180793E+00 6.437109183686E+00
 2.432290910753E-01 -7.687150642461E-01 1.119538853194E+00 3.770230960469E-01 -7.379626279338E-01 1.118628604782E+00 7.743574060783E-01 1.561214916795E+00 1.459669083693E+00 -3.941764257193E+00 5.934869492641E+00
 2.050168974994E-01 -5.332809835081E-01 -2.169102727195E-01 2.671223213236E-01 -5.973049466530E-01 -1.018425194454E-01 6.580384663530E-01 9.932774915959E-01 1.687434634580E-01 -3.014745170768E+00 2.888411532711E+00 1.914540381744E+01
 -1.417162858916E-01 2.510090345118E-01 -3.281015997787E-01 -1.127798944399E-01 2.105209751733E-01 -3.168966269332E-01 -2.926573990226E-01 -4.588912985614E-01 -4.092111835400E-01 4.286965685065E-01 -7.939683439265E-01 -3.271131541944E-01 1.631543375029E+00
 -9.797616371698E-02 4.092817493303E-01 -7.845343804381E-01 -2.211992532785E-01 4.191197989465E-01 -7.591768923249E-01 -5.889121985283E-01 -9.775953985864E-01 -9.307821814320E-01 6.892771615197E-01 -2.469734926529E+00 -7.509826738270E-01 1.180126716855E+00 2.401785359253E+00
 2.134464007961E-01 -6.462913590844E-01 -8.286087939342E-02 2.888009621057E-01 -6.063970774775E-01 1.560203332813E-02 7.044817685588E-01 1.022611367701E+00 2.331477173691E-01 -1.323261902665E+00 1.185556980371E+00 -1.091390767095E-01 -1.068138630244E+00 -5.638314312245E-01 1.869640778358E+01
 -9.785996344450E-02 -4.593364760528E-02 5.081245846903E-01 4.285214882676E-03 -1.636108113429E-02 1.605241941375E-01 4.764456090844E-02 8.519265823561E-02 1.922593765573E-01 -7.079268939672E-02 6.988053871039E-02 2.253047692779E-01 -1.151286346152E-02 -2.650566695537E-02 1.404479196595E-01 8.356387956043E-01
 -2.841706547587E-02 3.284044743205E-02 -3.214084799424E-01 -1.570307169815E-02 3.023919824111E-02 3.754256658234E-02 -2.687149167726E-02 -4.461009084663E-02 -3.624829437327E-02 5.008864991136E-02 -4.822224680505E-02 -1.486285917386E-02 1.166303988229E-02 3.762020165766E-02 7.364927600905E-02 -1.122296143196E-01 1.528229591482E+00
 2.461680246610E-01 -3.042779591810E-01 -1.845103405396E+01 -3.030918223962E-02 1.061066128361E-01 -3.202839103567E-02 -1.376995649337E-01 -1.538361254367E-01 -3.060838507556E-02 1.700223869513E-01 -1.681248160157E-01 2.921881511160E-02 2.884742772778E-02 1.347385765167E-01 2.916233794398E-02 -3.118079269558E+00 2.226112785167E-01 3.540249429305E+01
 -1.654487470323E-02 5.497787174459E-02 -5.624943696763E-02 -1.284300589529E-01 3.876253587603E-02 4.242647445698E-01 -5.849579848661E-02 -7.655406222274E-02 -8.119057409624E-02 1.071427483347E-01 -9.902943723655E-02 3.648211260707E-02 2.629583644978E-02 6.221025274132E-02 4.722491877989E-02 -9.311587353496E-02 -8.701583082551E-02 2.051281247544E-02 2.672891846035E+00
 -1.076861711933E-01 3.517766698232E-01 -5.700484657111E-01 -1.864875058688E-01 3.091034021588E-01 -1.122536936940E+00 -4.473793151230E-01 -7.382960918675E-01 -6.817716122096E-01 7.987196843046E-01 -7.281361775323E-01 -5.123863078500E-01 2.117878600977E-01 4.297112559273E-01 -5.470996286394E-01 -1.061500275260E-01 -5.912513875543E-02 8.763248837368E-02 -7.741680168428E-01 1.659998726399E+00
 -3.828800065014E-02 1.962515102002E-02 -9.739735279955E-03 4.370204323823E-01 -6.236279870039E-01 -1.839152923295E+01 -6.033203429977E-02 -1.957366697322E-02 3.070461094097E-02 6.759634171626E-02 -3.026272420503E-02 1.106940236831E-01 1.052750878170E-02 4.728140275435E-02 9.769261232369E-02 -2.987341447049E-02 6.249198959400E-03 1.050910288121E-01 -2.526071080456E+00 2.265488893204E-01 3.556823864643E+01
 1.737326674738E-01 -4.998382555811E-01 3.572679427782E-01 2.398109735991E-01 -4.878035347094E-01 3.914754292950E-01 5.498387658915E-01 9.255049059891E-01 1.210614504798E+00 -1.116433876055E+00 9.730720487618E-01 3.042751385892E-01 -2.875198734481E-01 -6.214676098592E-01 3.871221357375E-01 9.544150241896E-02 -2.914377713023E-02 -1.239981075615E-01 -5.027526406897E-01 2.074504753080E-01 1.697001102718E-02 6.922480233880E+00
 3.513254410677E-01 -1.054011595165E+00 5.557700375744E-01 5.389350548731E-01 -1.067977195055E+00 6.561736426242E-01 1.323220688841E+00 1.864421438235E+00 6.683099137033E-01 -2.258704749296E+00 2.014225846678E+00 3.863590601845E-01 -6.014608877906E-01 -1.307638862720E+00 5.690955549876E-01 2.247740894924E-01 -5.960713454560E-02 -1.761756960462E-01 6.071629571944E-01 -2.161831086151E+00 1.201872948014E-01 8.684660059447E+00 2.047973009617E+01
 4.154834288374E-02 -1.325073980601E-01 -5.153513451621E-01 8.664544793171E-02 -1.561903342336E-01 -4.983090954269E-01 7.467693669308E-01 -3.580459408669E-01 -1.844633557055E+01 -2.055402855249E-01 1.710882781377E-01 -5.264361057469E-01 -6.821952480563E-02 -1.809923347568E-01 -4.260291578033E-01 8.488637585903E-02 1.813285176080E-02 1.629764113720E-01 1.170149781924E-02 -1.629108483608E-01 3.656675309348E-01 5.020969440627E-01 8.313428313253E+00 4.150416760759E+01
 -2.560298806162E-01 8.331758094498E-01 -1.182057977730E+00 -4.085669640775E-01 8.028363145519E-01 -1.293410733115E+00 -1.104453806527E+00 -1.724739718706E+00 -1.553699489237E+00 1.860684246836E+00 -1.801196724888E+00 -4.055280257817E-01 5.042156898682E-01 1.015391420617E+00 -1.079140987438E+00 -9.842121988244E-02 5.231115036534E-02 2.234880101135E-01 1.052021007642E-01 7.902649167986E-01 1.400659530559E-01 -2.712049147086E+00 -2.592259655937E+00 -1.754616738161E-01 7.348362871654E+00
 1.263135574584E-01 -3.924353116610E-01 6.309213404394E-01 1.949886459544E-01 -3.797844684032E-01 7.224218170120E-01 5.228209587949E-01 8.304604462261E-01 7.857846876519E-01 -9.980639008022E-01 8.299415382707E-01 -5.911832011028E-02 -2.359754511140E-01 -4.850754195066E-01 4.362750831541E-01 2.952426518864E-02 -2.985664737746E-02 -1.128726117446E-01 -7.154750383303E-02 -3.877718463480E-01 -9.788189553973E-02 2.982502620572E-01 1.066469553406E+00 7.307015177467E-02 -3.071676512628E+00 4.695771291573E+00
 -7.472442146336E-02 1.448891896556E-01 -1.433208014707E-01 -6.530416230718E-02 1.882534066839E-01 -1.426045016039E-01 -2.444061704970E-01 -3.570765583068E-01 -1.812403794157E-01 1.063314299175E+00 -1.055179917947E+00 -1.822933050136E+01 1.068610789228E-01 2.276922104336E-01 -8.194403112585E-02 -4.870271977805E-02 2.545806491989E-02 1.526000580652E-01 -1.818660313363E-03 1.705896575524E-01 1.639597725705E-01 -1.796219457357E-01 -3.158182702500E-01 1.585295757806E-01 -2.282398763216E+00 -6.004723806793E-01 3.660980873296E+01
 6.707422398485E-03 -1.288217509257E-02 1.942315257966E-01 1.051539334286E-02 -1.592725209652E-02 9.015808983690E-02 4.038131446671E-02 6.741480900181E-02 1.080336127634E-01 -5.564684850959E-02 4.856129487712E-02 2.074762782634E-01 -1.283810739201E-01 -3.019515247600E-02 7.750851989595E-01 -9.436638221105E-02 1.835322335802E-02 1.069460264305E-02 -1.457256892482E-02 -2.733481466590E-02 -1.463801717552E-02 8.702026871559E-02 2.034689608436E-01 9.548571972092E-02 -1.715007122035E-01 -2.986580680836E-01 -4.280788641131E-02 1.282431599681E+00
 7.285130154908E-04 -1.057001135065E-02 7.553980487366E-02 6.962384910357E-03 -1.339199790299E-02 3.407365351717E-02 2.466395367966E-02 5.798352550839E-02 4.564041587778E-02 -4.958899274235E-02 3.842978034539E-02 1.135637356412E-01 -2.095195045553E-02 -2.563798672074E-02 -1.384495055440E-01 3.030142245470E-02 -2.678715024297E-02 -6.537947820035E-04 -6.864282255155E-03 -1.986688431525E-02 5.208367256958E-02 3.767424940547E-02 7.014202076797E-02 5.529242808327E-02 -3.710545654780E-01 -1.511110210117E+00 -1.039604958090E-02 6.515699865001E-01 1.704766258249E+00
 -3.624467726439E-02 9.765713922449E-02 1.939169378108E-02 -3.198732970534E-02 8.599687506786E-02 -4.736957621368E-02 -1.173478714167E-01 -1.172229102939E-01 -4.298271082218E-02 2.147336041889E-01 -1.604292273702E-01 2.533338347325E-02 6.693777550938E-01 -1.325781350883E-01 -1.842246463964E+01 2.891985682855E-03 -1.377939869989E-02 -2.148898906481E-02 -2.489337703737E-02 1.003261747701E-01 2.083044937571E-01 -1.174869754946E-01 -1.657088948917E-01 1.318244852185E-01 1.900340247436E-01 -9.603545343242E-02 9.295205042713E-03 -2.762628776651E+00 2.130066740831E-01 3.541996314237E+01
 1.000039930881E-01 -1.457485098014E-01 1.080529225804E-01 8.842488171894E-02 -1.577261537331E-01 1.506845451547E-01 2.031329787681E-01 3.147395790067E-01 2.134735138407E-01 -3.506857080689E-01 3.216009614349E-01 9.202686667640E-02 -9.887809566213E-02 -2.027072756209E-01 1.318973579073E-01 -5.300827929482E-01 -4.663034577835E-02 2.749550148676E+00 -1.242019191457E-02 -1.545173310768E-01 -1.117379842304E-02 1.657824665912E-01 3.172647076794E-01 -2.456415241320E-02 -3.367298434146E-01 1.743447683914E-01 -4.303708307858E-02 4.278622330678E-02 1.217257363449E-02 -4.365803931459E-02 7.483585475311E-01
 -3.234304977063E-02 1.405858823863E-01 -2.105103358762E-01 -6.630479468564E-02 1.248647922835E-01 -2.522331073003E-01 -1.792404284785E-01 -2.946927081529E-01 -2.934372882108E-01 3.083244604097E-01 -2.835270713214E-01 -2.218213576886E-01 8.302348624667E-02 1.627754462176E-01 -2.621565851180E-01 -5.435925666712E-02 5.508607626733E-03 1.746944249947E-01 2.458509284794E-02 1.334682447029E-01 -1.562725989044E-02 -1.789548695525E-01 -3.938530894049E-01 -7.887405799302E-02 3.111082608332E-01 -1.429217054018E-01 3.948972736619E-02 -3.133621840562E-03 -4.026141083723E-03 4.282696242977E-02 -1.233837814889E-01 7.784150852272E-01
 -1.900837786656E-01 5.778493039691E-01 -1.251187209819E-01 -3.694030630995E-01 6.211745683948E-01 -2.096283253999E-01 -7.536377132880E-01 -1.132440985366E+00 -4.772305904088E-01 1.299477585675E+00 -1.196521576536E+00 -4.565732967802E-02 3.714569392013E-01 7.982575807434E-01 -1.311234261507E-01 2.574965877646E+00 1.233166859604E-01 -1.646279959811E+01 5.492983889212E-02 5.962739187924E-01 -1.149173398956E-01 -4.251943622828E-01 -8.048055727501E-01 2.568268239568E-01 1.233025112289E+00 -6.475106893552E-01 5.834060288066E-02 -2.099593834126E-01 -7.886022523845E-02 -1.256191912500E-02 -2.953793937515E+00 1.580234948919E-01 1.707201358140E+01
 1.056776766432E-01 -3.437801727306E-01 4.407231968907E-01 2.121768645867E-01 -3.170872800564E-01 4.444227683205E-01 4.315001422595E-01 6.926231190624E-01 6.271057174769E-01 -7.532049832289E-01 6.913327587816E-01 3.933774642777E-01 -2.006264224926E-01 -4.149724336259E-01 4.269259814755E-01 3.704537697528E-02 -1.072695637759E-02 -7.204299527478E-02 -5.699624503415E-01 -3.931262435599E-01 2.738874291344E+00 3.873194117825E-01 8.168290976787E-01 4.259146719433E-02 -7.539975484598E-01 3.744548956044E-01 -1.162560154559E-01 2.692848272271E-02 2.150399335914E-02 -3.736819289242E-02 5.725358495581E-02 -2.075791272617E-01 -4.788947633016E-01 1.719504990401E+00
 -1.353355731143E-01 4.341851228723E-01 -7.566121029283E-01 -1.964973791414E-01 4.084880659744E-01 -8.396673035063E-01 -5.794240139361E-01 -9.413656748212E-01 -9.644059564788E-01 1.002293491833E+00 -9.148299289452E-01 -7.377048277305E-01 2.684778832325E-01 5.297719782679E-01 -7.752599707469E-01 -2.525464136238E-02 3.697134989624E-02 1.401194433557E-01 -2.749557985185E-02 4.130353833634E-01 5.023674547478E-01 -6.156555179771E-01 -1.307661844337E+00 -1.147761761526E-01 1.018987085908E+00 -4.856211267352E-01 2.314560828847E-01 -2.074543811936E-02 -1.404586786082E-02 1.149025349539E-01 -2.733704208772E-01 7.531582311577E-02 7.524219692042E-01 -1.045287718476E+00 1.761695776566E+00
 -1.339111766369E-01 4.262281139177E-01 2.905292734224E-01 -1.835308441617E-01 4.374352524217E-01 1.508630877574E-01 -4.299711706906E-01 -6.310351045133E-01 -2.827242960717E-02 7.586210281781E-01 -7.050601685515E-01 2.824947257475E-01 1.958186046079E-01 4.903239998195E-01 1.731846616317E-01 -1.263845177570E-01 -5.833389303733E-02 -1.357226010483E-01 2.700524560163E+00 6.095677923421E-01 -1.669938944499E+01 -1.355147102871E-01 -1.870375050582E-01 2.202538761875E-01 7.407532831737E-01 -4.331966897511E-01 -9.477932103511E-02 -6.997909843325E-02 -8.169130641677E-02 -1.775813866124E-01 -5.687177269554E-02 1.989481746453E-01 -1.562933274379E-02 -2.947857423731E+00 1.294654238114E-01 1.651061569689E+01
 3.386679633288E-01 -1.032039442390E+00 9.130684845485E-01 5.317414132854E-01 -1.037638858030E+00 1.003919171032E+00 1.357139188674E+00 2.077638070063E+00 1.414363111441E+00 -2.304169267501E+00 2.088148854176E+00 8.287185746609E-01 -6.002561615334E-01 -1.284003199371E+00 9.139848248722E-01 1.969196788857E-01 -4.856341014091E-02 -1.338581556804E-01 -1.142768676010E-01 -9.719334344967E-01 -3.795484464808E-02 6.831644680204E-01 2.157768238280E+00 2.527345933290E+00 -2.254645537885E+00 1.081928514106E+00 -4.296078912023E-01 1.301459914236E-01 5.883508932301E-02 -1.292526091964E-01 3.624475245093E-01 -4.025733447934E-01 -1.146422671688E+00 3.853049084890E-01 -5.509083078019E-01 -4.455963298908E-01 9.747628003865E+00
 5.318374538502E-01 -1.632357568156E+00 1.589033029811E+00 8.309899471878E-01 -1.627977726871E+00 1.731115082192E+00 2.120173674832E+00 3.321539323211E+00 2.356518451660E+00 -3.659860571749E+00 3.322779612485E+00 1.479403291622E+00 -9.550724313611E-01 -2.029667166217E+00 1.616969449748E+00 2.837788165302E-01 -8.706236790199E-02 -2.585626104450E-01 -1.851403099092E-01 -1.566569298544E+00 -2.107485838167E-02 1.781014629393E+00 3.616549072129E+00 4.722004883433E-01 -3.568440645420E+00 1.694688677970E+00 -6.024294285808E-01 1.907578852868E-01 9.696728830227E-02 -2.218546147878E-01 5.923814803316E-01 -6.301316394504E-01 -1.919755696338E+00 2.057745070841E+00 -3.139434917686E+00 -8.901436650798E-01 1.159419947697E+01 2.115055002754E+01
 -3.807588972573E-02 1.059181666502E-01 2.362411980615E-01 -9.629175643805E-02 1.135093900318E-01 1.479008647019E-01 -9.285575221255E-02 -9.559910379421E-02 1.421915317690E-01 1.965450258790E-01 -1.773025297097E-01 1.599526177004E-01 5.602675286698E-02 1.182212619311E-01 1.504988243769E-01 -3.780110068483E-02 -3.828385589145E-03 -1.499357993740E-01 2.583176724136E-02 9.980546819158E-02 -2.554159793015E-01 2.544564673942E+00 3.930392414967E-01 -1.594023705169E+01 1.142699961432E-01 -9.811998205586E-02 -1.762988866283E-01 -4.593390749882E-02 -3.099226969080E-02 -1.033722112205E-01 -2.919576978686E-04 6.091689911414E-02 -5.058313894703E-02 -1.283109612234E-01 9.467033855518E-02 5.789589629936E-02 1.419182400811E-03 4.216427892884E+00 2.252011449088E+01
 -4.209097551455E-01 1.311416673148E+00 -1.495290535295E+00 -6.542233948375E-01 1.280153098779E+00 -1.572643073383E+00 -1.685175861969E+00 -2.661121740053E+00 -2.127162873088E+00 2.936099006945E+00 -2.607805150092E+00 -1.402524453960E+00 7.779951010139E-01 1.620103097253E+00 -1.561470375067E+00 -1.660963740778E-01 7.078036241045E-02 2.516526195962E-01 1.473275980367E-01 1.260109967209E+00 7.162273706865E-02 -1.573492158773E+00 -3.093502066783E+00 -1.568135411642E-01 2.657299563524E+00 -1.664640243021E+00 2.799165130650E+00 -1.466759977830E-01 -9.667956912627E-02 2.100761822920E-01 -5.095015433068E-01 5.012748564202E-01 1.697857683293E+00 -1.134974423611E+00 1.629320950358E+00 8.847370668778E-01 -5.214016756538E+00 -5.760572130701E+00 1.154166655519E-01 1.587043054376E+01
 4.004553402383E-01 -1.251509550507E+00 1.266343705325E+00 6.295596154605E-01 -1.220433650050E+00 1.354212176906E+00 1.590943096334E+00 2.514357623068E+00 1.906380851511E+00 -2.708233735027E+00 2.494242351321E+00 1.149213858016E+00 -7.402792964260E-01 -1.554093745314E+00 1.392819489825E+00 1.871168242141E-01 -6.499275732904E-02 -1.903732919920E-01 -1.229884786868E-01 -1.178978882612E+00 3.385695359306E-02 1.353171824702E+00 2.767998970744E+00 1.833584272291E-02 -2.978306829148E+00 1.384455633902E+00 2.016299565982E-01 1.483110156908E-01 9.958944419350E-02 -1.468982556094E-01 4.620271692476E-01 -4.892817275624E-01 -1.516654596169E+00 1.075913393191E+00 -1.562352376547E+00 -7.890020461630E-01 2.960509100997E+00 4.872808916699E+00 -1.970905586495E-01 -1.236284053959E+01 1.401422485355E+01
 -1.739171202375E-01 5.256496441615E-01 1.370248403859E-01 -2.689234958898E-01 5.375713939465E-01 4.257662488203E-02 -6.102742570338E-01 -9.204669575917E-01 -2.239477770990E-01 1.067172334497E+00 -9.675385055351E-01 2.577759132809E-01 3.059541304795E-01 6.809462335100E-01 4.274570299095E-02 -1.868461986773E-01 -3.035514780734E-05 -6.018708948246E-02 -1.024642770299E-02 4.781062684061E-01 -1.509469025832E-01 -3.731351813115E-01 -4.281114225867E-01 3.226499823513E-01 3.261159262544E+00 6.963781351016E-02 -1.603248678601E+01 -1.703410792735E-01 -1.008610230978E-01 -6.986733369646E-02 -1.000761174055E-01 2.244479595013E-01 1.138161467679E-01 -3.888436035752E-01 6.625808450955E-01 -1.878144341915E-01 -8.817717223073E-01 -1.519425931070E+00 -5.227200249990E-02 2.705144876645E-01 -3.422441391706E+00 2.162965409811E+01
 -8.891850722054E-03 2.561070044688E-02 -2.148366413470E-01 -2.078476535396E-02 2.987718914842E-02 -1.557962668742E-01 -6.066787801464E-02 -1.065209872934E-01 -1.791588999149E-01 8.573056365759E-02 -7.808244892437E-02 -2.060339316800E-01 7.924179875415E-02 5.816660011999E-02 -1.155994965538E-01 2.563227705122E-02 1.706540592418E-02 5.696864140157E-03 2.152717591130E-02 4.174596005460E-02 1.486251847569E-02 -8.386527428903E-02 -2.220718263120E-01 -8.251846678458E-02 1.247616581285E-01 -6.914735916563E-02 2.528492972640E-02 -4.202048748873E-01 -2.962613366824E-02 2.334496688949E+00 -1.117383124508E-01 3.999232699472E-02 2.190619183958E-01 -4.974513493206E-02 3.690085987888E-02 1.255358536440E-01 -1.581703441649E-01 -2.222889499549E-01 8.485168456479E-02 7.790745370048E-02 -4.907004250379E-01 1.555281518612E-01 1.535759282996E+00
 -1.638502044486E-01 5.301176864695E-01 -8.939257599047E-01 -2.644696470745E-01 5.025992293361E-01 -9.234938328739E-01 -7.058077524940E-01 -1.149161894427E+00 -1.128442977925E+00 1.217220893724E+00 -1.118068319255E+00 -8.597141325068E-01 3.352760082232E-01 6.528221144085E-01 -8.857974955820E-01 -3.664415773881E-02 4.338245156770E-02 1.419575683809E-01 7.962129583489E-02 5.171867818933E-01 2.926039080018E-02 -7.399054339938E-01 -1.553060120882E+00 -2.255546926039E-01 1.213533494903E+00 -5.805178937457E-01 2.559804766444E-01 -6.423247027364E-02 -2.324243477934E-02 2.705606966407E-01 -2.049548572044E-01 1.817015429069E-01 9.218906286501E-01 -5.021447188289E-01 6.245688702880E-01 6.205814994527E-01 -1.547829209715E+00 -2.460442036717E+00 1.540726928422E-01 1.610352345974E+00 -3.381057670242E+00 7.967417503694E-01 9.323842457837E-01 2.638072017992E+00
 -2.481609020930E-01 7.861299632520E-01 -2.809536219816E-01 -3.678331199890E-01 7.321575330492E-01 -3.854585976121E-01 -8.782908050181E-01 -1.376771129918E+00 -6.934924897150E-01 1.617186790639E+00 -1.495710472172E+00 -2.278076987728E-01 3.852793574671E-01 8.807888443211E-01 -3.142744624806E-01 -1.595460285779E-01 -4.284558812932E-02 1.819006416598E-02 5.640976357232E-03 6.647996404127E-01 -2.592929045662E-01 -6.104520738450E-01 -1.115622412836E+00 1.944077349998E-01 1.410401636866E+00 -5.917467763022E-01 1.033765820670E-01 2.198243182868E+00 3.849082964463E-02 -1.652897674820E+01 -1.898523354612E-01 3.032680772520E-01 5.215417955843E-01 -5.965884906469E-01 9.202092952555E-01 2.620953457253E-01 -1.473300624204E+00 -2.477244337320E+00 -2.399020183675E-02 2.185805092021E+00 -2.048379034636E+00 3.843154156343E-01 -1.814177769564E+00 1.178524888436E+00 1.764932935589E+01
 -1.432252640584E-02 4.499085970007E-02 4.015344753592E-02 -2.061455977249E-02 5.308752197050E-02 2.497017257520E-02 -7.109085752721E-02 -6.454674306630E-02 1.930646486442E-03 8.351654614535E-02 -7.538518378976E-02 6.064855408346E-02 3.317949390172E-02 6.768913250409E-02 -4.767652719621E-04 -3.924408794420E-02 8.177409420198E-02 -9.190182497907E-02 -1.328845727138E+00 2.913759543507E-01 -8.849997500269E-01 -3.028135599497E+00 -6.756809257824E+00 -4.509480356474E+00 -1.710815223406E+00 1.388491939397E+00 1.113307461450E+00 -1.536454350998E-01 -6.319708108933E-02 9.870257980440E-02 -4.817826495428E-02 1.130365895294E-01 9.813563327177E-02 -1.687294817217E-01 5.974744175259E-02 1.445716184706E-01 -1.520735164255E+00 -2.524521242757E+00 1.612075295494E+00 -5.023585701595E+00 5.250627072189E+00 -4.241920554563E+00 -7.674186305780E-01 -3.807597063853E-01 -4.674690049636E-01 1.415981622100E+01
 -3.305723811009E-01 9.302162789078E-01 4.287892553394E-01 -4.766558002004E-01 9.832582828539E-01 2.580745368336E-01 -1.128359289361E+00 -1.492425458020E+00 -1.066589017124E-01 1.901625624379E+00 -1.654265855945E+00 5.079477502470E-01 4.972695661161E-01 1.165053988808E+00 3.691523853016E-01 -2.297064800356E-01 -7.206700364453E-01 3.218082534666E-01 3.320034648640E-01 8.380108230729E-01 -2.881001608248E-01 -7.154920306555E+00 -1.554375765521E+01 -9.183699117912E+00 3.368372115345E+00 -2.058001587906E+00 -8.702506992182E-01 -3.576217109613E-01 -1.436222458856E-01 3.436129702496E-02 -7.411691628442E-02 -4.294408841449E-02 -1.556518753111E-01 -6.094827004532E-01 1.204834651709E+00 -3.434024881054E-01 -4.020139950610E+00 -6.271413241696E+00 2.214399705148E+00 7.613019011540E+00 -7.368062224120E+00 4.086559510300E+00 -1.894374029859E-01 1.154416086894E+00 3.771784963997E-02 2.347465668477E+00 2.558305188949E+01
 -3.329458322972E-02 1.010029364656E-01 2.928213786302E-01 -6.985459375311E-02 8.421951176193E-02 3.152556118222E-01 -1.326712856210E-01 -1.202807924338E-01 1.766936781778E-01 1.362962671517E-01 -1.046094876485E-01 3.360698168307E-01 3.072567026658E-02 9.663570850263E-02 2.883406492410E-01 -6.094813387606E-02 2.946244600131E-01 -2.721509744327E-01 -6.638595287829E-01 2.369963474283E-01 -6.373822997210E-01 -4.304390596136E+00 -9.583970369001E+00 -6.413375495052E+00 1.248608845644E+00 -9.039829621502E-01 -9.719323528593E-01 7.603029965725E-04 2.984749801740E-02 -1.590571691734E-01 6.490712608894E-02 -1.056839959318E-01 -2.430424797314E-01 4.712742420683E-02 1.101422101794E-01 -1.903787571826E-01 1.671473996521E+00 2.480531408259E+00 -1.326618218499E+00 -4.426221541237E+00 4.590579233876E+00 -3.643358302043E+00 -4.248108172820E-01 -1.266562611143E-01 -4.166489949518E-01 5.205963324992E+00 2.233295315720E+00 3.306784839057E+01
 -9.178289106886E-02 4.501399366691E-01 -1.269216069595E-01 -5.297200585654E-01 1.176960007904E-02 -8.346005779121E-02 -1.174375120957E+00 -2.410202293805E+00 -1.321606070500E+00 -2.575532224341E+00 2.505847487724E+00 1.697197589163E+00 -9.430422130849E-01 -4.700892614082E-01 4.903492217864E-01 -3.464403124730E-02 1.359737013119E-01 2.386720524527E-02 -1.970585012331E-01 -5.934347818042E-03 6.014154299760E-02 -6.406369987471E-01 -1.131243070444E+00 8.182242963468E-01 -1.711577380039E+00 1.646233164664E+00 -1.459994147688E+00 -4.839518612732E-01 -2.446215147719E-01 -2.772890119226E-01 1.562197663658E-02 -1.029515793284E-02 -5.474601852465E-02 5.274050398502E-02 -4.617541338235E-02 -1.140812918503E-01 1.145473553700E-01 1.665574432128E-01 -3.250041991710E-02 -1.587068601783E-01 1.442818899589E-01 -7.857761885833E-02 9.593824144351E-03 -4.594018439237E-02 -1.142389948433E-01 -6.482422588484E-02 -1.139688923113E-01 1.016143524660E+00 8.341124079683E+00
 2.078415720664E-01 -1.596196808885E+00 2.146706429781E-01 -3.492942213380E-01 8.136649281402E-01 -8.597390419095E-01 -3.586990922222E+00 -6.551592351944E+00 -4.022184189289E+00 4.350252812029E+00 -4.042554196947E+00 -2.383388836874E+00 5.585612789809E-02 8.398331837553E-01 -7.012754029156E-01 1.813995270778E-02 -6.568056845215E-01 -2.005146571900E-01 1.219483975007E-01 7.647264667046E-01 -5.507945613118E-02 -2.257932032801E+00 -4.167438618717E+00 1.433402092485E+00 3.405749005355E+00 -2.428857388966E+00 1.718883577485E+00 -3.262779268434E-01 -1.766513006052E-01 -6.987464747017E-02 -3.075921190881E-01 3.141618726989E-01 1.021112259550E+00 -7.158292660396E-01 1.014047753808E+00 5.096884084897E-01 -1.994165466677E+00 -3.221502471407E+00 4.765774389479E-02 2.697860597516E+00 -2.498892098082E+00 7.967437824604E-01 1.271579726390E-01 1.214621574551E+00 1.307928931836E+00 1.163219140092E-01 1.445756992870E+00 5.143334740756E-01 -4.432241693399E-01 1.599461911038E+01
 -9.112784858237E-02 7.309986052314E-01 -3.009931476184E-01 -1.188887270482E-02 -3.582170773611E-01 1.801707430489E-01 -8.520726205856E-01 -1.844796531683E+00 -1.039904561012E+00 7.265511908681E-01 -7.272776747463E-01 -8.032130751115E-01 1.999498976323E-01 -2.877086945099E-01 6.075990651733E-02 1.354990515110E-01 -3.264802040230E-01 -2.644744894015E-01 2.618913129484E-02 -4.159186239284E-01 -5.653707316079E-02 1.140900456204E+00 2.097710356961E+00 -9.476109965838E-01 -2.224501428510E+00 1.741721224527E+00 -1.332467863866E+00 -1.788473047787E-01 -1.078509888738E-01 -2.695334206124E-01 1.224515893312E-01 -1.738819583584E-01 -3.495098056970E-01 3.160522952322E-01 -4.919613290511E-01 -1.078398378209E-01 8.245451867135E-01 1.353064512928E+00 -8.381310141859E-02 -1.231325862998E+00 1.135888943251E+00 -2.761054419966E-01 -1.138171427578E-01 -6.127436615737E-01 -4.569505554587E-01 1.029862499516E+00 9.193466489123E-02 -9.095937719427E+00 -5.061089481069E-01 -5.762729886101E-01 1.756809530219E+01
 8.913643679027E-02 -2.685834258183E-01 6.227150393296E-01 1.719017637074E-01 -3.307712494585E-01 6.368844990534E-01 4.034967160907E-01 6.515037821427E-01 8.900621982320E-01 -1.156727691554E+00 1.120816804280E+00 1.270437809039E-01 -5.913197069324E-01 -6.094328517926E-01 3.553440060842E-01 2.061234401143E-02 -2.497725023565E-02 -5.948291710317E-02 -5.064900553023E-02 -3.394280206972E-01 -5.451798190307E-02 4.947337602164E-01 1.048351959164E+00 1.110072485034E-01 -8.145859208401E-01 3.923488171775E-01 -9.766020157666E-02 1.507597897949E-02 1.319347220078E-02 -9.837217608039E-02 1.570576700036E-01 -1.284856006205E-01 -6.121341111776E-01 3.299577955968E-01 -4.169331087750E-01 -4.096429546764E-01 1.034615822334E+00 1.627412622013E+00 -1.188676279686E-01 -1.286369291776E+00 1.224243141420E+00 -5.175216318132E-01 -2.638348602907E-02 -5.120366283580E-01 -7.596558670970E-01 -4.748474405058E-02 -9.518543091440E-01 -8.935698565609E-02 4.209247409714E-02 -8.194383881048E-01 4.975773034075E-01 1.140617587531E+00
 5.783560640403E-02 -2.541946845368E-01 -4.247655391634E-01 -4.550408661467E-02 8.877264482407E-02 -1.930031958427E-01 -2.447507565521E-01 -4.121886727039E-01 4.080471629290E-03 5.809955387357E-01 -5.927590034500E-01 2.315164763965E-01 -1.197300764158E-01 3.238175253584E-02 -2.955301364366E-01 -8.495341939779E-03 8.155968950350E-03 6.802717692080E-02 1.065792245637E-02 9.418194621553E-02 4.737793220910E-02 -1.383972878408E-01 -2.884491991331E-01 -8.762993856821E-02 2.289199520369E-01 -1.097667519881E-01 5.485471211281E-02 -7.003447941815E-03 -3.028145604497E-03 3.674837426197E-02 -4.113086751946E-02 3.453342657299E-02 1.571977023470E-01 -8.804293536655E-02 1.150110163567E-01 9.847125631227E-02 -2.780731613239E-01 -4.430652520891E-01 3.244560231724E-03 3.509209811403E-01 -3.324851708118E-01 1.440894111261E-01 1.151267078835E-02 1.403896366688E-01 1.839238055546E-01 1.177992570561E-02 2.529322493822E-01 1.866451834690E-02 8.371771459910E-03 2.376774293626E-01 -9.135955319819E-02 -2.660338370547E-01 1.046977291003E+00
 1.791864311558E-01 -6.465530106939E-01 5.224027115098E-01 2.056441384391E-01 -3.843271393681E-01 6.488677148714E-01 5.937788300450E-01 9.815055114334E-01 7.636278220331E-01 -1.292407124512E+00 1.248313551691E+00 2.490443076884E-01 -5.363705609464E-01 -6.419124409506E-01 4.119650149413E-01 2.591345064490E-02 -2.968331418001E-02 -1.159642919081E-01 -5.322530206148E-02 -3.883041958278E-01 -1.128542405692E-02 5.335096846706E-01 1.134482968165E+00 9.619657510712E-02 -9.209585391658E-01 4.373279319070E-01 -1.965397900636E-01 2.318389960808E-02 2.206542344012E-02 -6.728562403691E-02 1.800799707830E-01 -1.537122450478E-01 -6.932151761338E-01 3.773365455680E-01 -4.870199070547E-01 -4.266928828730E-01 1.132556924927E+00 1.794328257137E+00 -1.295708226550E-01 -1.435510126327E+00 1.371967316370E+00 -5.598527326495E-01 -4.549296661496E-02 -5.996672646688E-01 -8.043533170759E-01 -6.559127130891E-02 -9.585212983428E-01 -8.247088520364E-02 1.747934757976E-01 -8.495447487222E-01 -1.605777605542E+00 8.095045422838E-01 -2.911255887617E-01 3.338661867132E+00