#BIOSYM hessian 1
@Type: Hessian Update
@Units
 distance: 	A
 energy: 	Kcal/Mol
#header
@natom 8

#label
L1      L2      L3      L4      L5      L6      L7      L8

#element
Li Li Li Li Li Li Li Li

#matrix
24
 1.330281919522E+01
 -6.204404151810E+00 1.004152757979E+01
 3.027680991596E-01 6.980175887209E-01 9.367855699914E+00
 5.163117917023E+00 -8.587410083230E+00 -1.737589111684E+00 8.370919844673E+00
 -5.468253661342E+00 1.357139547519E+00 1.470526791223E+00 -1.330209423519E+00 3.014247145047E+00
 -1.100566110650E+00 -2.480073186505E-01 -2.879102002240E-01 4.185102113033E-01 8.083835202190E-01 9.813740921928E-01
 -4.652493097690E-01 4.045127976569E-02 6.502007340587E-01 -3.000676944898E-01 2.392684322557E-01 -4.027032174239E-01 5.410760917512E-01
 5.184195487099E+00 -4.383371966090E+00 -1.065845179474E+00 4.071395899213E+00 -2.157568561601E+00 -3.712082040848E-01 -2.010345109995E-02 3.210819819161E+00
 8.819088014847E-01 -1.131985974215E+00 -1.570090407658E+00 1.015565640202E+00 -3.318438565541E-01 3.835337280129E-01 -3.195417757330E-01 3.481748577347E-01 1.003383113611E+00
 -1.362512878186E+00 2.250660889273E+00 1.056004153936E+00 -2.092774280551E+00 4.193313296207E-01 -1.706742562114E-01 3.257509666015E-02 -1.065174393012E+00 -4.849611027267E-01 8.433738901363E-01
 4.161039961330E+00 -1.623841215134E+00 3.224132946616E+00 -2.421621747613E-01 -2.190416266397E+00 -3.189143930743E+00 1.967168705640E+00 1.657790097415E+00 -1.055416886902E+00 1.530454514918E-01 1.487813743556E+01
 -2.302569029692E-01 -2.030192975288E-01 -9.177980149010E-01 4.632510026034E-01 2.656124750567E-01 8.427194448270E-01 -5.416360279067E-01 -1.616907183054E-01 5.960398093535E-01 -2.206056807685E-01 -3.392207041366E+00 1.072648644929E+00
 -1.359715918744E+00 4.118456793833E+00 1.593622294384E+00 -3.969933039760E+00 4.417022104967E-01 -9.970080599980E-02 2.247565763931E-02 -1.847196267808E+00 -1.291520105101E-01 1.011507437058E+00 1.183937023715E-02 -1.304633231603E-01 4.331149685010E+00
 5.441151067263E+00 -2.046970030234E+00 -8.270353433303E+00 4.328407608322E+00 -2.798147013459E+00 3.033586443463E+00 -3.246267743055E+00 2.397318792495E+00 2.441249404505E+00 -1.584145920403E+00 -1.663432715984E+01 4.438470248644E+00 -2.156710348296E+00 3.024476413976E+01
 7.982364873751E-01 4.344534295680E+00 8.948197657467E-02 -3.038608671386E+00 -1.997955166187E+00 -1.058981281675E+00 -2.611567559041E-01 -1.937195095167E-01 -2.168875167925E+00 1.242162160108E+00 -1.944317327577E-01 -4.936237405778E-01 -3.313197021888E+00 5.039874063218E+00 2.051164967319E+01
 -7.442669238513E+00 -4.231356926824E-01 -1.255012402570E-02 2.194305481111E-01 4.066035950513E+00 1.537226850622E+00 2.064174306208E-01 -2.168783880580E+00 3.259004855648E-01 -2.597741162125E-01 -3.341570182662E+00 6.292129005762E-01 -8.071250647263E-01 -2.961555887984E+00 -5.163068813423E+00 7.413450248794E+00
 1.481224280940E+00 -8.356500925094E+00 -1.888923638993E+00 7.347379456041E+00 4.874127652586E-01 6.229104027635E-01 1.353581361927E-01 2.649156917193E+00 1.314876941732E+00 -2.014393965562E+00 5.247557454050E-01 3.582274335549E-01 -3.918955785779E+00 -3.120618956344E-01 -6.325116620574E+00 3.670180288577E+00 9.171287235442E+00
 4.510329563843E+00 -9.250666457369E+00 6.336734323320E-01 8.291617644372E+00 -1.039786900957E+00 -1.256455813074E+00 1.092814531824E+00 4.669820290731E+00 -7.807603972541E-01 -1.787331446151E+00 6.409431240396E+00 -1.880802274640E+00 -4.563366872582E+00 -5.937284531711E+00 -2.327081039632E+00 1.897717532088E-01 8.030698982873E+00 1.536617363582E+01
 -7.480091819270E+00 7.697401018515E+00 7.299512644931E-01 -6.636222937406E+00 2.381946523793E+00 -5.499466649520E-01 4.883992308753E-01 -3.741769537397E+00 -1.768742810484E+00 1.872329166502E+00 -8.283427091842E-01 -1.060518373455E+00 3.749335877482E+00 -5.491881821065E+00 3.747951967876E-01 1.355460406473E+00 -5.585094480870E+00 -3.483947756234E+00 1.124758953436E+01
 -8.115395524468E+00 7.014109053052E+00 -2.164724899734E+00 -5.595475974410E+00 2.002962139468E+00 -1.091604916049E+00 7.492494091950E-01 -3.089658620708E+00 -2.061637969567E+00 1.745606124978E+00 6.960710306787E-02 -1.954866697052E+00 3.676398595402E+00 -6.480132364242E+00 -1.248575927904E+00 1.413394436844E+00 -4.557732343534E+00 1.988074890313E-02 1.413081438647E+01 2.189848385401E+01
 -4.945627826331E+00 3.140663420277E+00 -5.185423610871E+00 -1.819221036539E+00 8.503825182770E-01 -4.693972159847E-01 2.352541625892E-01 -1.055838652812E+00 -5.198122689574E-01 3.694165339913E-01 -1.488809712716E+00 -8.683854852454E-01 1.685139867305E+00 -7.053225424636E-01 -3.090781011465E+00 1.570808965872E+00 -8.346899729061E-01 7.424337554368E-01 8.624833794731E+00 1.507042752582E+01 1.332229348774E+01
 -3.556979477653E-01 1.107979946336E+00 -2.582407310322E+00 -7.544703576006E-01 -7.498213618168E-01 3.678539933116E-01 -5.256265032880E-01 -4.125638564156E-01 4.790227722027E-01 -4.472431540694E-02 -1.881018422092E+00 1.091016405081E+00 -2.977694633960E+00 5.671003045218E+00 9.360837418331E+00 -6.851902145469E-01 -1.115697929540E+00 -4.249887418279E+00 -4.596799459014E+00 -8.004591454008E+00 -5.720604461618E+00 9.940203431581E+00
 3.520442540988E+00 -2.002092043804E+00 7.997169824945E+00 8.074692345198E-03 2.843702441646E-01 4.350840030809E-01 1.348752311066E-01 -2.844864778643E-01 4.765834832656E-01 9.507048361356E-02 3.318294259923E+00 6.494735969956E-01 -3.255345680878E-01 -4.370444468848E+00 5.753905980406E-01 -2.545650320269E-01 3.936825009635E-01 -2.902093372866E+00 -8.563073380257E+00 -1.685763882111E+01 -1.497681258348E+01 5.384710032318E+00 1.951831480658E+01
 -2.167921119130E-01 2.650463743086E+00 -2.129788875167E+00 -3.593525678871E+00 -2.531938107699E-02 8.651172459257E-01 -4.532316515039E-01 -2.169692884273E+00 3.056581590816E+00 -4.010362177057E-03 -3.135548825282E-01 1.649201616255E+00 4.957117872451E+00 -4.021965235254E-02 -1.146178940849E+01 9.226979816060E-01 -1.277983528451E+00 -1.049718129899E+01 -2.866424650886E+00 -6.568897864421E+00 -3.930927650653E+00 1.254168601294E+00 7.745204450017E+00 2.244878678030E+01

