#BIOSYM hessian 1
@Type: Hessian Update
@Units
 distance: 	A
 energy: 	Kcal/Mol
#header
@natom 5

#label
L1      L2      L3      L4      L5

#element
Li Li Li Li Li

#matrix
15
 2.237553547698E+03
 -3.370432891507E+01 1.907236367272E+03
 1.166020571160E+01 1.184221626133E+02 2.199696530062E+03
 1.650609706689E+00 1.928604622150E+01 -5.881632480793E+00 2.240806651057E+03
 1.298475402582E+01 1.266410428030E+02 -4.541973147796E+01 -7.766263630358E+00 2.193095280706E+03
 1.796163072947E+01 1.785284419348E+02 -6.282055369433E+01 -9.579846126128E+00 -6.781916513077E+01 2.146285559702E+03
 1.384268541789E+00 1.191082876298E+01 -4.762728073490E+00 -1.295979425584E+00 -4.259053789633E+00 -6.790016025549E+00 2.240740829612E+03
 -6.192029151288E+00 -6.203717005181E+01 2.190792003081E+01 3.481701556339E+00 2.367158804773E+01 3.325124470833E+01 2.252059711701E+00 2.229331211289E+03
 1.800713851885E+01 1.794121272107E+02 -6.337789530917E+01 -1.006046987063E+01 -6.830046739887E+01 -9.591527436447E+01 -6.583305045046E+00 3.329967219945E+01 2.144480359860E+03
 -1.042316502184E+01 -1.024164028577E+02 3.656406967162E+01 6.175516396130E+00 3.877807361877E+01 5.501275939189E+01 3.539516519933E+00 -1.903574756895E+01 5.514620134608E+01 2.209436256281E+03
 1.029088336801E+01 9.479678629090E+01 -3.575545331161E+01 -7.782144035711E+00 -3.489858038430E+01 -5.209327789070E+01 -2.110417396749E+00 1.788498830146E+01 -5.170540460177E+01 2.860236547134E+01 2.218910106397E+03
 1.831128308502E+01 1.824493310350E+02 -6.464980571817E+01 -1.052115001616E+01 -6.949159855254E+01 -9.801216080758E+01 -6.522688333369E+00 3.382800390174E+01 -9.801109707689E+01 5.598248154699E+01 -5.207806090247E+01 2.141395847554E+03
 1.068085979648E+01 1.049238567882E+02 -3.757991482891E+01 -6.490677013510E+00 -3.973751022460E+01 -5.660452796967E+01 -3.522514527195E+00 1.949401545219E+01 -5.650956494923E+01 3.211799654531E+01 -2.900068740692E+01 -5.724992628246E+01 2.208060455920E+03
 1.662072067274E+01 1.742090944055E+02 -5.915489785515E+01 -7.219340112924E+00 -6.766321045095E+01 -9.186724362260E+01 -7.793417287806E+00 3.199550313417E+01 -9.270592740933E+01 5.407171133617E+01 -5.584717988159E+01 -9.470767548078E+01 -5.567967460811E+01 2.158151913512E+03
 -6.594025804494E+01 -6.588120627938E+02 2.319978453807E+02 3.604309849371E+01 2.510309625601E+02 3.513085498848E+02 2.465873747745E+01 -1.222868408403E+02 3.536700276114E+02 -2.027055119566E+02 1.916321967066E+02 3.601233367695E+02 2.079439340303E+02 3.384357443679E+02 9.437463610743E+02

