#BIOSYM hessian 1
@Type: Hessian Update
@Units
 distance: 	A
 energy: 	Kcal/Mol
#header
@natom 19

#label
L1      L2      L3      L4      L5      L6      L7      L8      L9      L10     L11     L12     L13     L14     L15     L16     L17     L18     L19

#element
Li Li Li Li Li Li Li Li Li Li Li Li Li Li Li Li Li Li Li

#matrix
57
 3.447690158572E+01
 3.971553288909E+00 3.433430017803E+01
 8.428560371230E+00 6.967762633109E+00 3.262588971941E+01
 -2.820612524826E+00 -8.311862145173E-01 -3.091835370570E+00 2.616476187086E+01
 -2.270400415182E+00 -1.058907464320E+00 -1.533982952563E+00 -3.001201786469E+00 3.668368954587E+01
 -2.821532129311E+00 -1.999126414584E+00 -3.383976613021E+00 3.586902654882E+00 -3.434317408192E+00 3.244133388995E+01
 5.320468716783E-01 6.279243598365E-01 6.421154397403E-01 9.435277386747E-01 -1.861456607297E-01 -1.807217930210E+00 2.157076585704E+01
 -2.088034141278E+00 2.307947142591E-02 -6.728873182450E-01 3.039704045741E+00 2.615384586205E+00 2.946039117667E-01 -3.275913201984E-01 1.864139179568E+01
 1.928201773529E+00 -6.948124099092E-01 2.160021378354E-01 7.080980954881E-01 -1.323378707159E+00 -2.021681252766E+00 -4.437921177564E+00 -7.728150808370E+00 2.853970715703E+01
 8.215416644293E-01 7.470357634240E-01 -1.839670667796E-02 -8.535003215019E-01 -6.499437969931E-01 -3.893212217113E+00 -1.285707911443E+01 7.193195415925E-01 2.055225274959E+00 3.298389864871E+01
 -2.134680346452E+00 -1.354527214981E+00 -1.994544540490E+00 -1.429627566800E+00 -1.465420935981E+01 -1.663622432043E-01 7.316186966161E-01 -8.016416424586E-01 1.463200807947E+00 -5.389106877907E+00 3.333743842773E+01
 1.432157809144E+00 8.016294851712E-02 2.218924712730E+00 -1.850938430637E+00 -4.191714953938E+00 -1.475858788924E+00 5.420994020210E+00 2.480507183564E-02 -1.241491420039E+00 -2.540763533345E-01 3.277743775844E+00 2.343785318309E+01
 -5.583270967116E+00 -4.916748361638E+00 -3.254998678027E-01 4.228568876769E-01 8.852268652567E-01 -2.407301060819E+00 -2.590463656525E+00 3.375681875521E+00 1.110553454367E+00 1.627484711556E+00 -1.836597538674E+00 -9.870025190563E-01 2.796839917548E+01
 -9.045494527518E+00 -1.220612645287E+01 1.159228118426E+00 -1.501725174320E+00 -2.444282561842E+00 1.895359199490E+00 1.362673718660E+00 -3.301574435709E-01 -6.842095065500E-01 -1.458370248026E+00 2.986912397776E+00 1.546481204930E-01 5.017023157278E+00 1.774248522384E+01
 -1.715164779478E+00 -8.351375690043E-01 -4.360606471218E+00 6.112322597946E-01 -4.024984150890E+00 4.320663436073E-01 -5.213030185173E-02 -1.597243441441E+00 2.604424608243E-01 -1.168435380363E+00 8.016857732036E-01 -8.531470533014E-01 1.119515915354E+01 -5.368396467769E-01 2.308863998537E+01
 -7.499434619878E+00 6.184018237460E+00 2.369821327417E+00 -3.234138787460E-01 -1.540953494963E+00 1.054038118696E+00 1.825766335020E+00 -1.106938601681E+00 -2.834584355330E-01 1.075787487995E-01 1.827160142861E+00 -4.846029938873E-01 -4.296822750527E+00 1.344267204440E-01 1.735988316394E+00 1.133359930721E+01
 6.596019752064E+00 -1.032119806936E+01 -3.131309956537E+00 -2.799700725809E-01 2.177028934471E+00 -2.429051359837E+00 -6.990814183590E-01 5.952971701073E-01 2.139456669809E-01 -2.025209661954E-01 9.665051850164E-01 3.122821442037E-01 -7.835162023511E-01 -1.187336032606E+00 -1.955094023000E+00 -4.833178483432E+00 1.196489531904E+01
 2.103433340626E+00 -4.986546727838E+00 -2.226161404198E+00 -1.112814485337E+00 -5.394554922944E-01 1.450408541419E+00 -8.688344715504E-01 3.372474800213E+00 9.333243402472E-01 2.065687802502E-01 -1.425694647408E+00 1.651757191690E+00 2.643009087022E+00 1.230574612463E+00 -2.663154552629E+00 -6.667058217415E+00 2.844866616283E+00 2.039288443524E+01
 -4.933552285659E+00 -2.661431199250E-01 -3.921734846067E+00 -2.120684113724E+00 6.814671433688E-01 -1.233167932876E-01 2.030655518008E+00 -1.309971414814E+00 -1.504774991140E+00 -4.698899213825E+00 6.961122911232E+00 5.829297978945E+00 8.879511833649E-01 -2.960283821513E-01 -1.954923264759E+00 -5.262834469479E-01 -2.074769634830E+00 1.334901268620E+00 1.471145694880E+01
 4.019222301972E+00 8.393410857858E-01 5.078537194579E+00 -2.035629535590E+00 -2.320417508468E+00 -1.413956506306E+00 9.251934275370E-02 -1.827357635842E+00 1.108172950227E+00 3.976513899757E+00 -1.086881566291E+01 -5.107909532333E+00 2.220123419697E-01 1.837574745128E+00 1.837710432122E-01 -5.707959163039E-01 -5.739342648525E-01 -1.907828601541E+00 -7.922275168321E+00 2.780873524038E+01
 -2.210127409804E+00 1.861407221030E+00 -1.240695444446E+00 -1.379513679022E-01 1.994496233828E+00 -1.691364564880E+00 -1.013848204751E+00 1.136443882914E+00 -1.260851974658E+00 4.216844343188E+00 -8.624251482626E+00 -7.541531745694E+00 1.413345969204E+00 -2.240062122116E+00 2.910248879752E-01 1.796561433187E+00 -9.326657508184E-01 1.829280327477E+00 -2.461292913824E+00 5.201654978088E-01 1.099921611792E+01
 -5.204373815440E+00 -5.086756012736E+00 -8.492940037944E+00 3.278453570964E+00 -4.989173584287E+00 6.690600435953E+00 -2.889620930160E+00 -2.504713637963E-01 -6.667953052194E-01 8.453581552527E-01 5.320457122638E+00 6.872852698656E-01 -2.188892011925E+00 6.347708644304E+00 1.747338833978E+00 1.884508531889E+00 -3.063812132025E+00 2.808880617609E+00 4.766399077061E+00 -5.371882388039E+00 -1.780063852031E+00 5.765334010143E+01
 6.656626164691E+00 5.763728274965E+00 1.401538917461E+00 -4.414287787829E+00 4.899938594085E+00 -4.690228798956E+00 1.526533910717E+00 9.735716366052E-01 2.482602555160E-01 6.895814270197E-01 -2.560891000420E+00 -1.763163188056E+00 6.173110464064E+00 -4.428841332148E+00 -3.656869374826E+00 -6.140062080598E+00 6.152829166290E+00 4.041393251028E+00 -4.565030232529E+00 4.699951106891E+00 1.335315002786E+00 -1.125579987643E+01 6.463803593055E+01
 -7.249436065769E+00 2.282434498931E+00 -1.903421750783E+01 -3.479514118273E+00 7.783541871369E+00 -2.161582550108E+01 -1.181959058362E+00 5.353493304941E-01 1.137395797819E+00 2.607671057978E+00 -6.502373764623E+00 -1.550088315099E+00 8.965282844219E+00 -9.096403670536E-01 3.474677340424E-01 -3.678687413099E+00 3.802011437690E+00 4.334604271605E+00 -1.397576268194E+00 1.106675397768E+00 3.936656510443E+00 -8.648243747798E+00 8.098492096408E+00 5.800715159738E+01
 1.526937183257E-01 1.618072554168E+00 1.548683343519E-01 -1.269151903381E+01 1.118525444490E+00 -8.567521795229E-01 2.940312745290E-02 -1.769190702182E+00 6.605439630245E-01 -8.159965129256E-01 -3.353595854462E+00 -5.478694013744E-01 -1.289645370050E-01 -8.517861387187E-01 2.998317928875E-01 4.893267650272E-01 8.848623154915E-01 -1.254946076264E+00 6.540613701613E-01 1.067129835141E+00 1.248979942294E+00 -3.507330707148E+00 4.574682119030E+00 1.030933643957E+00 2.187838474902E+01
 9.856596343386E-01 -1.741435878318E+00 6.920698600662E-01 2.062294886825E-01 -2.176015478594E+00 -1.420922462861E+00 -3.912533677431E+00 -1.029223703695E+01 2.607563831729E+00 -1.209499444607E+00 3.395829336824E+00 1.680097856691E+00 -2.076363799498E+00 1.481272799236E+00 7.201018383997E-01 1.287301846061E+00 1.833868178643E-01 -1.353268383701E+00 -4.898640343031E-01 -4.159762724917E-01 -8.060935874205E-01 2.915978725195E-02 -7.085134392906E-01 -2.521712647308E+00 1.263611161688E+00 2.608794396155E+01
 2.507781922411E+00 1.238854477346E+00 1.378542698225E+00 -2.243217657199E+00 4.319677000437E+00 -3.916273934356E+00 -1.439279688191E+00 3.703465759763E+00 -1.298726389041E+00 2.533539677805E+00 -3.288530529615E+00 -1.113724755795E+00 2.058665062884E+00 -3.602892541581E+00 -3.013912969978E+00 -2.038534798123E+00 2.609400047399E+00 -1.569742375896E+00 -4.432119526185E+00 -1.674418570358E-01 2.741162721162E+00 -7.674303230326E+00 7.017636311099E+00 4.247642366780E+00 -1.221552501671E+00 6.671732228927E+00 2.765223462618E+01
 -4.777643181114E+00 -2.476866062333E+00 -6.180029955178E-01 9.427757674620E-02 1.021964189857E+00 2.656433661667E+00 -4.723261275322E+00 2.424525409741E+00 -5.262469580486E+00 -1.428285454945E+00 8.475684101688E-01 -9.605743862785E-02 1.307194300704E+00 1.643665970236E+00 -1.645934809908E+00 -1.194800822334E+00 -8.807800336201E-01 2.126914187201E-01 1.278136082600E-01 -2.183756436673E-01 -1.225988601063E-01 5.125514032469E+00 -3.117782728719E+00 -3.228129088633E-01 -5.296007405715E+00 -2.336457534460E+00 -3.193117675890E+00 3.634029432499E+01
 -1.554336297401E-01 2.306983228216E-01 -4.778448308235E-01 4.433894384695E-01 -1.480972817506E-01 9.266908334696E-01 2.665515252696E+00 -2.871674758733E+00 3.786215654333E+00 1.155322769829E+00 2.814984799521E-01 -2.103014546485E+00 1.455881059598E-01 -9.149380716996E-01 -1.027034100810E-01 -1.297974127067E+00 -7.206831537029E-01 5.632753963202E-01 -3.678056346331E-01 1.169933988026E+00 7.461499511829E-01 -1.059559153481E+00 -1.130849817817E+00 1.826696136296E+00 -2.320664815476E+00 -4.831209670926E+00 -2.402486721334E+00 4.128654774640E+00 8.210954786340E+00
 -2.624917259446E+00 9.059965876311E-01 -1.124229722767E+00 -6.478744963195E-01 2.965983183546E-01 2.976469864504E-01 -4.594439201274E+00 3.791164840299E+00 -9.785708334672E+00 3.813979182415E-01 -5.904783688635E-01 -3.342913438695E-01 -1.674476667624E+00 -3.269351824856E-01 1.332009704558E+00 -7.736869155317E-01 2.735991324779E-01 1.717578275457E+00 1.472314052770E+00 -6.035667413083E-01 6.308566400311E-01 1.671898512292E+00 -2.140689693933E+00 2.713165284656E+00 -2.919463459125E+00 -2.391460911499E+00 -5.303106457296E+00 1.066204537407E+01 -1.663319396804E+00 1.322944390849E+01
 1.323896654239E-01 2.119153046859E+00 4.765231190020E+00 5.246079665031E-01 -1.748740436140E-01 1.813102736469E-01 3.145067619868E+00 -2.405919904726E-01 9.756342919723E-02 4.576567143908E-01 -2.725248677076E-02 1.433285726615E-01 -2.454602260697E-01 2.780300725933E+00 -9.238729643219E-01 1.789778627483E+00 -6.471749890169E-01 1.402368003375E+00 1.245338993702E+00 2.146461161471E-01 -4.537954092613E-01 -1.462308799759E+01 2.547799822742E+00 -3.313536233607E+00 -4.575990875174E-01 1.783456054419E+00 -1.091026028854E+00 -5.600992366009E+00 -2.469865885563E+00 -1.422233557943E-01 3.147532576516E+01
 1.452312171745E+00 -5.680265649948E-01 -1.678499652246E+00 -1.314129188434E+00 1.938307863357E+00 -2.405972980877E+00 9.776725769874E-01 -6.858973765628E-01 6.268101044356E-01 -1.001828551522E+00 -1.854613965518E+00 1.225584458011E+00 -1.428740346400E+00 -1.564609058626E+00 2.679199333453E+00 2.151278388374E+00 -8.757407650014E-01 -3.685633740993E+00 3.732012869642E-01 -6.455473746303E-01 8.879831499556E-01 1.542874465575E+00 -4.147227338747E+00 9.195587806537E-01 4.678100511144E-01 -2.395767367956E+00 -2.562701626874E-01 -1.851759805121E+00 -1.908183923064E+00 -3.632914221359E-01 -5.248749388085E+00 2.515788082958E+01
 2.536034035271E+00 -2.404784966734E+00 -4.822030336047E+00 4.252407670720E+00 -1.583943033118E+00 5.627527822368E+00 -4.143468720994E-01 1.166655451448E+00 4.048001042439E-01 -6.843156385021E-01 3.857311038534E+00 -2.146724106911E+00 -1.213406349646E-01 2.605217885252E+00 1.128060197469E+00 2.031878999900E+00 -1.371320375678E+00 -3.632586253744E-01 3.382884946646E+00 -3.406414384556E+00 1.598604866101E-01 2.440883748573E-01 -1.951989803657E+00 -3.345807229388E+00 -2.306697822980E+00 1.929343522012E-01 -6.394878206629E+00 -1.030491759858E+00 -1.142025009624E+00 -7.149412317297E-01 6.423894897770E+00 -4.869661967879E+00 1.929341355967E+01
 4.344099818257E+00 -2.151121356609E+00 3.765712598192E-01 1.732792111534E+00 -7.395109284171E-01 3.812084516407E+00 -3.673782771450E+00 1.689545232508E+00 3.687991925211E+00 -2.350325670181E+00 -3.725631063817E+00 -4.667141109074E+00 -1.521190296056E-01 -8.829023238805E-01 1.218701739542E+00 3.720560830744E-01 2.227781652716E+00 2.973902678288E-01 -9.819538319174E+00 6.487385704373E-01 1.267809584839E+00 -1.810054943853E+00 2.015437223802E-01 -7.569970305581E-01 -6.107262476152E-01 2.119621488649E+00 2.721028809178E+00 -1.166217016722E-02 -2.424943178226E+00 -1.049857501996E+00 -2.084438079873E+00 1.862399744189E-01 -1.423784451917E+00 1.711876828865E+01
 -1.161116564841E+00 3.664273428606E-02 1.551445668386E+00 -2.708592686713E+00 3.372069589288E+00 1.805831546351E+00 -1.977942497188E+00 -2.447644227235E+00 -2.439223080755E+00 -3.238379001888E+00 -3.643687969188E+00 -4.204846212151E-01 -3.324511027536E+00 -5.573586130382E+00 -6.602297217340E-01 2.153719610871E+00 1.129947306893E+00 -2.272588075700E+00 1.413939296630E+00 -7.746389344286E-01 -8.888762722590E-01 -4.033682122319E-01 2.270291690194E+00 -2.670189444814E+00 1.458878721002E+00 -1.380927877876E-01 2.858900860509E-01 -7.594333567617E-01 -1.156341792390E-02 -3.733075028593E-01 -1.157954432083E+00 -2.287505892324E+00 1.544334378500E+00 8.668587369075E+00 4.345159232784E+01
 1.579273496512E+00 1.705173422780E+00 2.719341589969E+00 -1.071302037976E+00 -1.362125525794E+00 -1.683660485219E-02 2.051247449439E+00 -5.209803070292E+00 -7.686347386214E+00 -1.268453378504E+00 -3.616079187965E-01 -2.087246239005E+00 -1.503753038528E+00 3.755438857318E+00 -2.102530525027E+00 -1.424804597922E+00 -2.978526780880E+00 -1.566772233580E+00 2.095097816784E-01 1.845312120952E+00 -1.842791509439E-01 1.743316706783E+00 -1.513857678305E+00 -3.228211109279E+00 1.425855009182E+00 -4.876518038854E-01 1.134967612086E-01 -2.222618515592E-01 1.418948523774E-01 -1.246830617246E+00 1.172396821722E+00 2.984229686384E-01 -1.611594137100E+00 -8.706586627269E-01 1.941785178973E-01 1.481598877813E+01
 3.564436524007E+00 1.062938670740E+00 2.483954237511E+00 -2.741383116909E+00 -4.540497965550E+00 -3.764390474080E+00 -4.002061512471E+00 -3.040716490847E+00 3.324445544525E+00 -3.907481624386E+00 8.691015986836E+00 -9.130788007249E+00 -1.366994581541E+00 -1.334539461191E+00 -2.105144731374E-01 1.294627593634E+00 6.080476640991E-01 -4.509951139825E+00 9.566895177924E-01 -2.085505380923E+00 1.640367647729E+00 -1.088381794851E+01 -5.941276195960E+00 4.436396500717E+00 -4.223444366665E-01 4.279708103859E+00 6.420639084327E+00 -2.197154691699E+01 8.995553502453E-01 -9.129181230406E-01 -3.270931912599E+00 4.994611757683E+00 -4.211869546447E+00 2.608087415130E+00 -8.653957244021E-01 -3.099924822601E-01 5.021756070051E+01
 3.297929472255E+00 3.308899011844E+00 -5.371821319162E-01 -2.034953343706E+00 -4.992141382988E+00 -4.903349031420E+00 1.029111988721E+00 -2.892405776899E+00 3.748746768988E+00 7.785508255481E+00 -7.995717833787E+00 5.227807407047E+00 4.924935806854E-01 -1.073351092094E+00 -2.460388770983E+00 -1.057035823493E+00 -2.669530109489E-01 2.633605009022E+00 -1.226658092526E+00 5.594070645120E+00 4.113662674159E-01 -1.148122576651E+01 -2.600807390589E+00 1.090804791200E+01 5.226252427520E+00 -6.867328403756E+00 -7.573666322099E+00 -3.457089802865E+00 2.797345968579E+00 4.078944835182E-01 5.103409056223E+00 -9.300981094757E+00 4.340548803699E+00 -4.650369378614E+00 -2.566070334308E+01 1.693910604663E+00 -1.011665713740E+00 5.654685140224E+01
 1.445651564931E+00 7.669147204486E-02 2.681291307149E+00 -5.226726118887E+00 -9.813781051353E-01 -1.865318456063E+00 6.145224843168E+00 2.241898475992E+00 -7.777866080712E+00 -8.216113503866E+00 6.154334501338E+00 -5.065036127894E+00 -5.285672077386E+00 -3.236254883541E+00 -1.007089571669E+01 1.380580262061E+00 3.317098919878E+00 1.510255375348E+00 2.603539961468E+00 2.226295802815E+00 -1.880597527252E+00 3.914930548204E+00 2.871387835396E+00 -2.293693078440E+00 4.296884575561E+00 -7.231668872356E+00 -1.021244367965E+01 -3.085317379546E+00 -9.400342286934E-01 -1.259280445775E+00 -1.109684017234E+00 9.289635455043E+00 -2.711370885359E+00 -2.500516821387E+00 1.865760642346E+00 4.240911073008E-01 -3.586559259445E+00 -3.913388840886E+00 4.638974075056E+01
 1.571460515491E+00 3.460612439490E+00 2.238530807375E+00 -1.842304624453E+00 2.982723520755E+00 -3.431760541167E+00 4.285009284568E+00 -2.337351650105E+00 -7.476355602801E-01 -2.367418781303E+00 -2.347078767887E+00 8.222902578667E-01 -1.912416209123E+01 -1.226235357769E+00 -1.301438393168E+01 -1.388057268127E+00 3.696685727132E+00 3.076468779662E+00 -3.367912955231E+00 7.480265501514E+00 -2.825665332546E+00 -4.428121684353E+00 5.989319856238E+00 4.673461886978E+00 2.441931245000E+00 -1.145174974875E+00 1.410782159662E+00 -2.801673981217E+00 2.269649925506E+00 -1.540728111216E+00 -5.625450554747E-01 7.914488344146E-01 -1.256903310691E+00 -5.231801928187E+00 -9.317526995247E-01 3.787019581931E+00 -6.974372457297E+00 6.059745837534E+00 9.384498242104E+00 5.040576307021E+01
 3.238386119444E-01 -1.882416174231E+00 1.086849021960E+00 2.007867348798E+00 -2.649116563758E+00 3.971817149282E+00 -9.078132635794E-01 -8.952332067171E-01 -1.289151477499E+00 2.921315673398E-01 1.782512035947E+00 1.483151836924E+00 -1.784189567045E-01 8.105262716032E-02 2.366368032845E+00 3.120002470129E+00 -1.184878948610E+00 -3.219320413343E+00 6.755439756481E+00 -1.324425031164E+01 7.740545006286E+00 1.362825101200E+01 -2.220422101359E+01 -1.334090824933E+01 -6.068894068988E-01 -1.226111422791E+00 -1.529917225366E+00 1.925789914610E-01 5.224100430267E-01 -6.983222595793E-01 -1.662627711087E+00 4.006204102137E+00 9.398154231492E-01 -2.347413708992E+00 -4.680804443807E+00 5.415859488321E+00 6.097433352437E+00 -4.638076190537E+00 -7.773474602083E+00 -1.046090040784E+01 4.449666791441E+01
 5.950108035595E-01 2.497641573441E+00 7.135121361707E-01 3.435309320272E+00 1.700362899414E+00 5.011465652398E+00 1.126167123813E+00 -2.842109642727E+00 6.111453773008E-02 -1.152391806231E+00 1.553530129851E+00 -1.637536986581E+00 -1.396120662330E+01 7.341337176133E-01 -5.191553018806E+00 7.321397557069E+00 -1.121336397051E+00 -2.345653855073E+01 -2.625830794004E-01 5.385678101678E+00 -5.750551114911E+00 1.382323501896E+00 -6.308808017877E+00 -6.418487465241E+00 -7.797657266440E-01 -7.219852778358E-02 -4.498993798890E+00 -2.005528698460E-01 1.039850262027E+00 -1.015638994428E+00 -1.802925627871E+00 1.089994357813E+00 1.327152132767E+00 -8.296515639248E-01 4.086102193840E+00 7.320453536079E-01 7.277857951185E+00 -8.993675809537E+00 -6.501249829568E-02 6.269313833453E+00 5.618451031162E+00 4.878773612085E+01
 -1.864358108359E+01 -2.465320337356E+00 -4.858876162611E+00 4.204326284821E+00 1.619967122833E+00 2.753943835405E+00 -4.248982652390E-01 -4.399391957397E-01 2.361024875126E-01 -2.463831930150E+00 -9.682490594428E-03 5.860281940839E-01 3.640534958368E-02 2.314427143910E+00 3.550511941323E+00 3.843377732319E-01 -2.862954068984E+00 -4.030486754235E+00 3.506206987154E+00 -1.531564854975E+00 5.616670656394E-01 -5.968873314267E+00 -3.934938084838E+00 7.940958820834E+00 -1.147354252208E+00 -1.913277725778E-01 -1.945239655162E+00 3.809233402481E+00 8.288509623430E-02 2.334999887103E+00 -2.126235025028E+00 3.362148491476E-01 -1.409357272720E+00 -3.261469732559E+00 7.559825713315E-03 -2.141362998259E+00 -3.731582588407E+00 -9.112092064607E-01 -2.027848679168E+00 -5.016230931723E+00 -4.744271708842E+00 3.622472364380E+00 3.955439335688E+01
 -1.559101844755E+00 -1.637768195324E+00 -6.350221842819E-01 4.158250443792E-01 2.268697370903E-01 1.750662778297E+00 -2.173849875354E-01 -8.019216962858E-01 -1.319162196466E+00 -2.562931294927E-01 5.175387533187E-01 2.974960429144E-01 -7.266704564728E-01 1.604232522037E+00 1.051832954146E+00 -1.570031165280E+00 -5.049646955244E+00 -5.317857764989E-01 1.187614286313E+00 1.100818922298E+00 -2.588173446249E+00 1.092013695839E-01 -2.079174073863E+00 -4.586722901943E-01 -8.093875110872E-01 1.218571542100E+00 -1.935585463443E+00 1.182895899811E+00 1.139945547072E-01 1.154875813981E+00 -1.000585852082E+00 7.125222465894E-01 -2.731972951151E-01 8.662794735695E-03 1.939397798962E+00 1.074435110371E+00 -7.438174744472E-01 -2.510154068585E+00 1.359966670441E+00 -3.544367463105E+00 -4.787048760025E+00 7.367687758192E-02 5.256293096180E+00 1.903446108716E+01
 -1.134831322256E+00 2.151140695306E+00 -1.644562804234E+00 3.287446941002E-01 7.254988521381E-01 -2.456691579892E+00 -9.107104447497E-02 1.350155578979E+00 -1.989594251973E+00 1.257389701446E+00 -8.526988674375E-01 -1.514169680322E+00 5.600326402290E-01 -2.568839724900E+00 8.703904599583E-01 -1.699723102826E+00 -1.109342001840E+00 -6.178885224077E+00 -1.309509119583E+00 2.001958812419E+00 2.309395997050E+00 3.950090687989E+00 -1.991891842961E+00 -3.408206158329E-01 1.787690016894E+00 -2.535869776320E+00 3.660657212011E+00 -5.849788929390E-01 5.691897652809E-01 1.485815855105E+00 -2.070221514258E+00 2.488012640335E+00 -2.262154175993E+00 7.141206195826E-02 1.804849154876E+00 1.407367068314E+00 1.238780109210E+00 -6.546713461026E-03 -2.719814871028E+00 3.816973750899E+00 1.038984112704E+00 -2.184031038667E+00 -7.309801892377E+00 1.109775745275E+00 2.683527876494E+01
 1.243417641955E+00 -6.373622063622E-01 8.203729266295E-01 -4.989092155245E+00 4.862017772328E+00 3.666332146541E-01 6.494442793955E-01 -8.201732427592E-01 -1.200705770186E+00 -1.640880008032E+00 -1.412492455577E-01 1.451718780891E-01 6.964186524090E-01 -3.441318261801E-01 -2.642348780406E+00 -1.061168355645E+00 -1.186739815749E-01 1.632921815400E+00 -1.136381682151E+00 3.366295309545E+00 -1.195551471537E+00 2.394713870997E+00 6.109151265362E+00 4.530831465105E+00 -1.293743867540E+00 -1.091651780128E+00 7.532858321307E-01 6.733678128049E-01 -1.624547721178E+00 1.094244527020E+00 -2.626940385162E+00 -3.873402254943E-01 -2.472114972219E+00 -9.221269736106E-01 1.496570586559E+00 1.138676449778E+00 -1.225595445321E+00 -3.994572246156E+00 1.392134919381E+00 9.460377997073E-01 -1.774394200129E+00 -6.733089320517E-01 5.116361727424E-01 1.063702691819E+00 -7.449174551945E-01 2.242134959766E+01
 -2.334435356970E+00 -5.151204722916E-01 -1.733135246447E+00 9.420268831784E+00 -1.168466959365E+01 6.573545734732E+00 -9.105438514454E-01 1.404728215115E+00 -4.292937047750E-02 -4.001585512624E-01 -1.524118565701E+00 1.051280660556E-01 1.901705479571E-01 1.278743952704E-01 -1.359837676287E+00 4.185392122762E-02 -1.944848824291E-01 4.105541307640E-01 9.683074580120E-01 -3.105610906791E+00 1.048330794907E+00 6.747114211481E+00 -1.287947635304E+01 -7.038341233763E+00 -3.993907278313E+00 -5.162620219986E+00 2.302120669761E+00 2.159180580093E+00 -5.461334974359E-04 1.381251694984E+00 -4.712985405417E+00 -5.498151838917E+00 -1.408211343500E+00 1.198446893750E+00 -8.284519944749E-02 -5.479662757812E-01 -1.378854992864E-01 1.005140129761E+00 -4.397646158761E+00 -1.795455499091E+00 3.244839266391E+00 6.824756424694E-02 3.637768655471E+00 -4.886165968890E-01 -1.252520166903E+00 -7.264454802803E+00 3.866002879981E+01
 -3.455510594441E+00 -1.282181705833E+00 -3.134692060812E-01 -1.081982599067E+00 4.747545420297E+00 -4.337088929458E+00 -1.242013151127E-01 -3.649744878082E-01 5.948826150239E-01 7.227700242469E-01 1.289708652465E+00 1.668766003443E+00 -1.115371942869E+00 -3.265047314073E-01 -1.665838873315E+00 4.956776932096E-01 2.736284262739E-01 -3.396109261300E-01 9.798048935325E-01 -1.947740247275E+00 1.270388542356E+00 4.512708880225E+00 -7.504873916244E+00 -4.605381570124E+00 -2.720316561544E-01 3.052850906695E+00 -1.007318146935E+00 1.288393466786E+00 3.418008837013E-01 -2.129194280172E-01 -3.839476867347E+00 -2.894135878472E+00 -4.493416813105E+00 5.442937253857E-01 1.395451431669E+00 -7.821287588128E-02 -7.365853503330E-01 -2.045263611379E+00 -2.524434618558E+00 -1.970286616084E+00 2.540932740352E+00 -3.381767400215E-02 1.991823217724E+00 -5.610991182807E-01 -1.069578616319E+00 -5.456701696219E+00 3.729738369129E+00 2.615098627181E+01
 3.671699905585E+00 4.629981530538E+00 3.669607512662E+00 -5.319455927199E+00 -2.687783883045E+00 -3.142976943386E+00 -4.173083901513E-01 4.207128252969E-02 -1.035079296075E+00 1.754132014190E+00 -1.295675596897E+00 9.351281218015E-01 1.377023515703E+00 -1.316226629756E+00 2.411309363868E+00 -8.102556219207E-01 -1.906992099765E-01 -1.024336587953E+00 -1.813297779872E+00 1.107009793518E+00 -1.235566893787E-02 -1.734426742666E+01 1.649723052694E+00 -2.039707579138E+00 4.291097088203E-01 7.721090867152E-02 3.850648252948E+00 -3.715287584888E+00 5.869650941326E-01 -9.897776054811E-01 -1.099341762307E+00 -1.668911217328E+00 -3.097863687416E+00 2.925270928241E+00 7.206815392212E-01 -1.411558960445E+00 4.386815985084E+00 3.993459271268E+00 1.682635807986E+00 2.919671750825E+00 -3.991165183306E+00 -2.062516146694E+00 -5.702050768109E+00 -1.580895993941E-02 2.380886017965E+00 -1.007574933800E+01 -8.859473746387E-01 4.909894354030E-02 3.540511364092E+01
 2.718141169322E+00 2.913900209374E-01 2.501105982175E+00 -5.223607270871E+00 -4.220352685524E+00 -1.593950675941E-01 9.424987025513E-01 -6.996785622808E-01 -3.789833123991E-01 1.106266799749E+00 -1.035060204848E+00 1.382960062193E+00 1.760830687523E+00 2.162978821918E+00 -1.225076560198E-01 -1.758631123837E+00 -6.381566226061E-01 -1.956412902875E+00 -2.231657402170E+00 -3.259946540849E-02 -6.959100840849E-01 -7.144051519554E+00 -4.037868582928E+00 -5.244621598749E+00 -9.987060489744E-01 3.472394735523E+00 -1.629713284686E+00 -9.282416548054E-01 -2.290184606977E-01 1.179267438680E+00 2.834248418272E+00 -8.862703259332E-01 1.174239687725E+00 1.898564185397E+00 -7.356271212101E-01 -5.163278233002E-01 1.702202359072E+00 2.693894628870E+00 1.927569737894E-02 1.133784957879E+00 1.905202698148E+00 8.112670375656E-01 -5.464080719850E+00 -3.133319910963E+00 3.089962416342E-01 1.473380268616E+00 -3.544820499409E+00 -1.591034410460E-01 4.993055334561E+00 2.117626206585E+01
 1.218380970270E+00 1.771083329023E+00 6.927718532649E-01 1.568055680237E+00 1.974009791958E+00 -2.903155013176E+00 -5.129183956737E-02 1.315448246199E-01 2.095589195598E-01 -3.461515922436E-01 8.956519849113E-01 5.145651884532E-01 3.025809088376E-01 -1.253453254940E+00 -1.072044388935E+00 -4.111950074526E-01 -5.864031421833E-01 3.301216004823E-02 -7.452112028738E-01 5.882745442423E-01 -1.190047574115E+00 -5.614612888830E+00 9.295018376950E-01 -1.842138117537E+00 1.434641663915E+00 -6.170085319258E-01 1.455943647228E+00 -1.601620597589E+00 -1.982031062965E-01 -8.759978270310E-01 -9.097106190161E-01 -1.377288696125E-01 -2.241203595523E-01 1.363652954570E-01 -8.524854613205E-01 6.851762555382E-01 2.262339214806E+00 -5.867676491059E-01 7.483214119582E-01 -2.303872974855E-01 3.819613889198E-01 2.680465962555E-01 -3.129369434413E-01 -2.934462872233E+00 -4.270668408536E+00 3.202992457412E-01 5.473809466227E-01 -1.002510748981E+00 8.741022295366E+00 -4.163288471004E-01 1.866510001799E+01
 -4.221934834872E+00 -6.145290193478E+00 -4.489362233343E+00 1.159139415682E+00 1.807984677296E+00 -5.678857990666E-01 -5.785806540467E-01 5.749252866266E-01 9.682784976156E-01 1.507781743786E+00 9.945664133749E-01 -1.120901888041E+00 5.097158269488E-01 -4.554209008836E-01 1.058003308536E+00 -3.999286945332E-01 1.396995133377E+00 6.812032646412E-01 1.613014488336E+00 -2.763531874674E+00 5.825078430243E-01 1.781899757565E+00 -4.536358531578E+00 -6.646719247729E-01 -1.054206904675E+00 3.972885595907E-01 -5.625298986488E-01 1.952290794736E+00 5.582468093289E-02 7.729785100987E-01 -3.750370685232E+00 -4.141238064233E-01 3.180603219034E-01 -1.009012313010E-02 5.882961659364E-01 -9.434269774735E-01 -2.875760463837E+00 -2.447314844739E+00 -6.801179649096E-01 -1.862368051734E+00 3.195512804714E-01 -1.441797179422E-01 -1.492323501308E+00 2.991843214114E+00 6.148195741668E-01 -4.573156931306E+00 5.331456923149E-01 6.159195449685E+00 -6.529339354454E+00 1.402523341286E+00 -6.037100699637E+00 1.807879762934E+01
 -8.513668850900E+00 -1.265711879645E+01 -7.081912799258E+00 2.929332439623E+00 -1.799440817122E+00 4.650548418595E+00 1.997463919159E-01 -8.252818311558E-01 2.078318914037E-01 -1.360432205121E+00 4.123950965436E+00 -1.465746470670E+00 -3.055577453916E+00 9.353623661705E-01 5.107446549372E+00 2.442783207369E+00 -1.712999697858E+00 3.600895844093E+00 4.268603256233E+00 -3.722329949076E+00 -9.705101886729E-01 8.311532758072E+00 -2.562024318875E+01 1.828800468497E+00 -2.768136944967E+00 3.482614517961E-01 -6.738342430671E+00 3.081650787625E+00 4.341284556044E-01 7.669724214205E-01 -1.086318301381E+00 4.186625119182E-01 2.796620652917E+00 -1.315783004210E+00 -3.876683094058E+00 -1.701235959065E+00 -4.256357845433E+00 -1.860707530308E+00 1.694831484756E+00 -3.352678044991E+00 4.124101998337E+00 1.387242248956E+00 5.568666964063E+00 -4.210787883122E+00 -3.224164547796E+00 5.783020730238E-01 -8.936452545805E-01 2.041885652360E-01 -4.201683764042E+00 -3.508190692606E+00 -8.601014364276E-01 5.350059285262E+00 4.643278136358E+01
 -2.128565006913E+00 -5.688954597655E+00 -2.074701229231E+00 1.392400975878E+00 7.151451054777E-01 1.628894306624E+00 2.867699269385E-01 6.880121042412E-01 6.076824282414E-01 3.167486075485E-02 -4.218686830200E-01 -1.023070373967E-01 -2.833302984764E-01 2.436537925957E+00 1.302905379848E+00 -6.064716565413E-02 7.786422775342E-01 1.576612270442E+00 1.944092538324E+00 -2.020426511064E+00 -1.028895966011E+00 3.586330266606E+00 3.742462894091E+00 -6.265064635386E+00 -9.079933462608E-01 2.762127069168E+00 -2.084627905675E+00 1.971256004722E+00 -6.296882649998E-01 -2.637720074292E-01 1.460585931379E+00 -1.474697427944E+00 2.357685975902E-01 -8.017094631055E-01 -9.112433466130E-01 -1.143488685328E-01 -2.733083199668E+00 -6.963295864785E-01 -1.276479580687E+00 -1.892429310748E+00 2.312844463308E-01 7.287742380951E-01 1.137027266506E+00 -2.771349892188E-01 -2.713383423346E+00 2.985003858778E+00 7.221736455918E-01 -8.670787464463E+00 -9.132388073065E+00 2.391145829768E+00 -8.335535047921E+00 3.376507383141E+00 -2.973258358077E+00 2.524112981476E+01