#BIOSYM hessian 1
#COMMENT: Materials Studio generated
@Type: Hessian
@Units
 distance: 	A
 energy: 	Kcal/Mol
#header
@natom 19

#label
Li      Li      Li      Li      Li      Li      Li      Li      Li      Li      Li      Li      Li      Li      Li      Li      Li      Li      Li      

#element
Li Li Li Li Li Li Li Li Li Li Li Li Li Li Li Li Li Li Li 

#matrix
57        
 5.853248535213e+000
 -9.116290785983e-001 1.580364803111e+000
 1.126886731344e+000 -5.303897343167e-001 6.546577574845e+000
 9.357490164332e-001 4.576021121906e-001 -1.770035301086e-001 3.673077312817e+000
 1.546549923314e-001 -1.004868073632e+000 5.933752528549e-001 -1.029850983658e+000 2.632566086119e+000
 -2.051226743296e+000 9.257339515520e-001 7.494690787846e+000 -2.950872834090e+000 1.341444650422e+000 1.825676403341e+001
 4.682617212184e-001 -3.671156532226e-001 1.743220587519e-001 -2.158213792111e-001 3.240298805533e-001 1.178151553789e-001 1.253912806713e+001
 -6.474053450964e-002 -7.138172715181e-001 -1.137299553666e+000 -4.895255108207e-001 4.751748779352e-001 -1.426261961470e+000 3.384991746534e+000 2.069677763813e+000
 -2.431646726436e-001 -2.557411909040e-001 7.595840212278e-001 -1.446754093845e+000 8.571193233396e-001 2.440317800150e+000 7.484493045294e+000 2.389734093816e+000 6.250516810025e+000
 1.485216584753e+000 1.076648258943e+000 -5.826098776250e-001 4.933444570839e+000 -2.172093267924e+000 -7.412817099268e+000 -3.052518792556e+000 -2.167557352400e+000 -4.872207842250e+000 3.710837958870e+001
 1.017186042381e+000 -5.582089744403e-001 -7.815670291148e-001 -1.962493892140e-001 -7.010067971645e-001 -2.537417775358e+000 6.535189547735e-001 5.636526756973e-001 -1.072085530728e-001 -8.621337406174e+000 6.460349907451e+000
 8.683465036556e-002 -3.878090090596e-001 -1.362176454105e+000 -9.856599716762e-001 -4.194876586656e-001 -1.905437067946e+000 3.137587624396e-001 6.360115711241e-001 3.071006404684e-001 -7.999283958552e+000 3.241229531773e+000 4.077647575570e+000
 1.336603687026e+000 -1.581357916398e+000 -3.166985450401e+000 6.468319494723e-002 9.773629891700e-001 -8.465330428884e+000 4.871269135452e-001 1.468923784360e+000 -8.954831271165e-001 4.151695939239e+000 8.811566443583e-001 4.723733065371e-001 8.940038678358e+000
 2.820840064703e-001 -2.040328745025e-002 7.319465905934e-001 8.798008397197e-001 -9.506359813199e-002 -1.063102838192e-001 -2.543472361012e-001 -3.083656592839e-001 -5.820151013479e-001 3.636434126218e+000 -1.595557548927e+000 -7.112240983289e-001 2.477890461175e+000 3.968839400837e+000
 6.081275443028e-001 -5.830101952952e-002 -1.150372100501e+000 7.600053079781e-001 -1.010369423154e-001 -2.788783393889e+000 -1.102474091220e-001 6.293352044151e-002 -8.413966925798e-001 2.813382511946e+000 5.760884615302e-001 -1.689123296232e-001 9.055112758683e-001 -3.991962082544e-001 2.580959002997e+000
 -3.526389378207e+000 -1.168402842964e-001 -1.741342869002e+000 -3.895019711689e+000 3.658618480405e+000 4.932497536330e+000 -3.527392736464e+000 4.768821033366e-001 -1.176882971056e+000 -1.196158820636e+001 1.948696259561e+000 1.752317197494e+000 2.087075149613e+000 -1.189128812369e-001 -3.921274452051e-001 4.258215688412e+001
 1.116283542016e+000 4.339665314820e-002 -4.075871974594e-001 1.042451577443e+000 -6.668393768041e-001 -2.506451361379e+000 -9.778717213995e-001 -1.871881887482e-001 -1.192889092090e+000 -2.495411324548e+000 1.888088433553e+000 1.341128669160e+000 3.721098170412e-001 -4.137182135580e-001 -1.553588909707e-001 3.010910735148e+000 3.608749942405e+000
 -2.170251529539e+000 1.267189770009e+000 -2.831167758726e+000 6.545924109511e-001 -1.448455557021e+000 -2.322866801866e+000 -4.892414120254e-001 -2.983120599562e-001 -6.271201653372e-001 2.697759719373e+000 -5.390603913621e-001 -6.813168491337e-002 -4.983266501405e-001 -6.014901458506e-001 -5.266755284696e-001 -2.213658784221e+000 -7.546157449307e-001 4.832623546691e+000
 -2.317304390547e-001 -4.630732149523e-001 4.230639218267e-001 -7.388734497009e-001 3.880330011313e-001 2.169438994413e-001 4.411855037253e-001 3.694911878931e-001 8.560903024824e-001 -1.502266118383e+000 7.623199842562e-002 4.032741606445e-001 -2.784700931688e-001 -2.154517739311e-001 -1.276280275855e-001 4.460877960230e-001 -3.982640307810e-001 -2.127859146928e-001 4.502981154787e+000
 -2.323982520608e-002 2.269570569449e-003 -5.634205073017e-001 1.133886038630e-001 1.665902386580e-001 -2.643519910658e-001 1.493932203263e-001 -4.326014278494e-002 -3.860609901126e-002 2.932634221060e-001 1.310760008532e-001 -1.090774897983e-001 6.514192365287e-001 1.006876338219e-001 8.984696696517e-002 8.672346252347e-001 -5.659065047567e-001 7.596896150514e-001 -2.256224399663e+000 3.450458764040e+000
 1.287373784945e-002 -4.912189472853e-001 1.706353277926e-001 -7.073261616930e-001 3.106738452654e-001 -8.815154604155e-001 4.841845652497e-001 2.933986282264e-001 7.638995551564e-001 -7.794859836950e-001 2.427556676145e-002 5.282975439370e-001 2.367034328578e-001 -1.407875269618e-001 -2.606909247045e-002 1.499543339461e-001 3.925701905201e-001 -8.688979353943e-001 3.335080180265e+000 -2.214660376951e+000 4.253297529936e+000
 3.657769631391e-001 -1.290036938290e+000 -7.359277687931e-001 -1.551616490626e+000 3.346154512888e-001 3.561454784287e-001 -1.689111308966e+001 -4.388004251586e+000 -1.096873913055e+001 -4.893852618936e+000 3.443905202546e+000 2.155913464659e+000 -3.423758746810e-001 -1.423908517064e+000 8.115574398348e-001 -7.100841805221e+000 -2.622133091385e+000 7.932285182009e-001 -1.245582954109e+000 8.870330841810e-001 -1.677909108629e+000 4.969112967702e+001
 -2.507771099705e-001 3.364813437773e-001 -1.280342169088e-001 5.330039408150e-001 -4.461018116946e-002 -6.286168201872e-001 -1.720418274277e+000 -6.626587212268e-001 -1.546890196103e+000 3.853444925194e+000 -1.485984304290e+000 -7.773888925857e-001 4.914410290752e-001 6.285405459212e-001 5.446518994698e-002 3.851885382433e+000 9.399448047236e-001 -6.813287783978e-002 1.513655498194e-001 -8.778669964526e-001 -2.675602659992e-001 -3.586922964136e+000 2.769443561095e+000
 -7.410498137051e-001 4.919542669598e-001 -1.229204968310e+000 7.353856926415e-001 -3.811842298003e-001 -1.921866497731e+000 -6.884185049219e+000 -1.972954324964e+000 -5.089185577750e+000 3.885115033033e+000 -7.850433490015e-001 -1.524821244859e+000 6.680666945471e-001 3.217299523745e-001 1.410722541402e-001 5.276634557188e+000 1.908347670671e+000 4.015610082662e-001 -4.443716855236e-001 -6.615154249250e-001 -6.909729460627e-001 4.335456875696e+000 3.086069179771e+000 7.872347234270e+000
 -5.236636918569e-001 2.716457075288e-001 1.303322791681e-001 -7.454420777741e-001 -1.496932654162e-001 1.335904472711e+000 -2.274571295413e-001 -1.973776001877e-001 4.717342092337e-001 -2.492219562153e+000 -1.476067152035e-001 4.371042271664e-001 -1.432249680695e+000 -5.380399921727e-001 -6.373498988248e-001 -7.846943464691e-001 -3.788318149385e-002 2.769900226525e-001 1.796769715467e-001 -1.445748738540e-001 1.461082670849e-001 3.046715198140e-001 -1.769695572155e-001 -4.619372869061e-002 7.649710947347e-001
 -2.338266149113e-001 -4.253305387647e-001 -8.425927143634e-001 -6.164377503298e-001 5.793007384887e-001 -8.884646491890e-001 2.747061853714e-001 5.794283100515e-001 2.705722712469e-001 -8.120765554490e-001 4.390048114166e-002 2.707289004321e-001 1.125131984891e+000 -1.616951930165e-001 3.973395542610e-002 1.694934286939e+000 -1.800436747164e-001 -2.392924917569e-001 1.258677729987e-001 5.275544052447e-002 2.146334029880e-001 2.352108090593e-001 -3.424259454895e-002 2.458985048983e-002 -9.018510242459e-002 5.143253868054e-001
 2.080333872347e-001 -1.604193301246e-002 3.834279355498e-001 2.908490108604e-001 5.907362460846e-002 2.592823748121e-001 -3.502764665125e-002 -1.050750695959e-001 -2.125847502963e-001 1.138672826094e+000 -7.154287105511e-002 -3.628059184999e-001 1.645510152860e-001 2.743281684058e-001 1.996079410076e-001 3.896202092231e-001 -1.313213541955e-001 -1.728363821108e-001 -9.268431986674e-002 6.760496624205e-002 -1.406705475769e-001 3.486921257902e-002 7.451085105225e-002 -4.018298236171e-002 -2.909008786978e-001 -8.533258989111e-002 2.306308748963e-001
 -2.464087666076e+000 -2.102710419133e-001 5.317283442248e-001 -4.375768014129e+000 1.692426746591e+000 6.702615335179e+000 1.200940466565e+000 1.030640792584e+000 3.424384073134e+000 -1.292829001161e+001 -4.053024791284e-001 1.665552988870e+000 -3.385611547508e+000 -2.196878364004e+000 -2.476596539969e+000 5.009505378307e+000 -7.331654361275e-001 -9.165661919238e-001 8.711827980241e-001 -2.898361513964e-001 5.888606296515e-001 -3.229365150066e-001 -9.315453270841e-001 -1.109974230403e+000 2.032664553563e+000 7.604656342457e-001 -8.371027908518e-001 9.933013399621e+000
 -1.436830715986e+000 -1.348011142899e-001 1.731461658840e-001 -2.629544749570e+000 6.405418648603e-001 3.303341764661e+000 4.622658432964e-001 5.573795005187e-001 2.033664259209e+000 -8.765876753801e+000 -1.165298464833e-001 1.344259417188e+000 -2.326526628619e+000 -1.549091233937e+000 -1.686164915013e+000 1.904745749450e+000 -3.424914536966e-001 -3.987130234796e-001 6.363323365471e-001 -1.904188965501e-001 4.822232515727e-001 5.542059186637e-001 -7.329880269891e-001 -6.268990086365e-001 1.504161340887e+000 4.300258235792e-001 -6.425776613179e-001 6.398517049305e+000 5.601679400620e+000
 1.416097035899e+000 -2.804665758300e-001 -2.467852715213e+000 2.322028488529e+000 -1.042233809943e+000 -7.534251518884e+000 -2.556331996614e-001 1.813341015884e-001 -1.632646512787e+000 5.793054693937e+000 8.224414834973e-001 3.513161368653e-002 3.614966739183e+000 7.643553258225e-001 1.530188467581e+000 -2.588429959296e+000 8.357775151363e-001 1.006944277549e+000 -2.675763181144e-001 1.581137929384e-001 1.617914042660e-001 3.824513042223e-001 3.121600145871e-001 5.243756315271e-001 -9.864331139466e-001 5.973705382214e-002 1.832810460530e-001 -5.141873885543e+000 -2.899692651283e+000 4.928204903655e+000
 -9.398844471253e-001 1.579884711329e+000 4.524787418734e+000 -4.290922422148e-001 -1.217638247082e+000 9.179014936359e+000 -9.212648906525e-001 -1.978744061863e+000 5.881690635247e-001 -2.660836290316e+000 -1.140991947251e+000 -8.911175535629e-001 -6.517319544717e+000 -2.093467411765e-001 -1.617459159952e+000 -2.399949199236e+000 -4.423967769470e-001 6.528294813879e-002 -2.142110294468e-002 -4.191760350618e-001 -5.720343952206e-001 -2.274953118568e-001 -1.878813945311e-001 -5.604841864407e-001 1.343351198257e+000 -1.427499662722e+000 -2.362922899066e-002 2.413141191428e+000 1.684307137791e+000 -3.450961943021e+000 7.609798366417e+000
 -1.901139842037e-001 9.496195855777e-001 2.397187506075e+000 3.324349674215e-001 -9.380747945682e-001 4.622987485703e+000 -4.562695060027e-001 -1.152107864761e+000 -2.456270580789e-001 1.435949756835e+000 -4.865298882947e-001 -1.025866243201e+000 -2.414226085675e+000 5.356773232087e-001 -1.907081839948e-001 -4.198857570629e-001 -5.387669723128e-001 1.514275922941e-001 -1.910997244270e-001 -1.757829472076e-001 -4.951619449237e-001 -8.469544950101e-002 9.766581826557e-002 -3.913597350612e-001 1.835406441394e-002 -8.345726376123e-001 3.250138079842e-001 -1.043305377646e+000 -1.533426063894e+000 -1.101298908854e+000 3.587781858069e+000 3.492792541773e+000
 3.758404568563e-001 -4.214754694117e-001 -2.977318935054e+000 9.904969780459e-001 1.293252563065e-001 -6.070681173052e+000 2.236106313861e-001 8.225614605707e-001 -4.670302796741e-001 6.951066705378e-001 7.295553188390e-001 8.991694172172e-001 2.491139947189e+000 -3.248037262270e-001 5.926826448524e-001 -1.595771314696e+000 1.199210857418e+000 6.538732681060e-001 -1.271189575828e-001 8.544036525337e-002 2.819171340093e-001 -8.245133113401e-001 2.038136762419e-001 8.337580300476e-001 -1.699989001630e-001 4.588715982471e-001 -2.819933687082e-001 -8.424669787892e-001 -5.049703738278e-001 1.778947874232e+000 -3.210727636382e+000 -2.052600068545e+000 3.587696853464e+000
 2.997073390602e-001 9.649789317957e-004 9.272963279485e-001 -2.562658461908e-001 9.043917570564e-002 1.279610606975e+000 -9.137108034752e-001 -2.878308810450e-001 3.029414402378e-001 -4.361489110139e-001 -2.484064189810e-002 -8.420343405542e-002 -6.727167277280e-001 6.459713201878e-002 -1.528118527555e-001 -1.231500484961e-001 -3.440477688825e-001 -2.352222451599e-001 1.866001122941e-001 3.277585414618e-002 5.431549019811e-002 7.331604653577e-001 -1.724537562453e-001 -3.652960997801e-001 1.040872616822e-001 -1.910023751882e-001 6.095342534069e-002 1.647896582930e-001 1.064605289794e-001 -2.970686818799e-001 9.148306901247e-001 5.335536935523e-001 -6.284833197676e-001 1.335781893583e+000
 -5.254537121449e-002 1.016834695912e-001 -2.852448715616e-001 7.489117820416e-003 -4.114709521060e-001 -4.179381622259e-001 -1.493825633161e-001 -9.712204362315e-002 -5.441872234725e-002 -6.996975555618e-001 7.804452338302e-002 3.306806259038e-001 -4.558976630926e-001 -2.584037586260e-001 -1.748232183130e-001 -1.436091179440e+000 3.302691923876e-001 3.025592561736e-001 2.016727314327e-002 -5.280513379140e-002 5.656897763444e-002 1.854084095855e-001 -8.289341046487e-002 1.891338932461e-001 3.128906215493e-001 -1.034415544213e-001 -1.422439354430e-001 4.984171996333e-001 4.635939699298e-001 -3.803804025903e-002 3.366960093218e-001 -1.244899515902e-001 2.935752442435e-001 1.249549037975e-001 1.129745771001e+000
 5.804063545149e-002 -7.491261997734e-002 -9.081249828707e-001 -4.186271252328e-002 -8.816543255943e-002 -1.561531435464e+000 5.510059189563e-001 2.448646486556e-001 2.434282022653e-001 -9.816534458189e-001 5.199141456607e-001 6.186738563526e-001 4.970183605987e-001 -2.647554788056e-001 4.675333376682e-002 -1.023526601240e+000 1.460521728427e-001 3.871886341875e-001 9.649505253246e-002 -1.014630862671e-002 1.558869413922e-001 1.464281792284e-001 -2.400215679245e-001 -2.816627542172e-001 1.414400484263e-001 1.299344905615e-001 -1.948391023691e-001 2.122568669545e-001 2.949512096334e-001 4.329236626801e-001 -6.823748781315e-001 -6.243765289408e-001 6.569952831382e-001 6.255994813553e-002 4.669287281740e-001 7.700407206175e-001
 -1.469702529241e+000 -4.204152680353e-001 -1.284869186927e+000 -2.178269738306e+000 8.846915640659e-001 9.315502663736e-001 1.192131901980e+000 1.311798677783e+000 1.822506485583e+000 -6.986351795096e+000 1.186803312178e-001 1.335014290654e+000 -2.688839635862e-001 -1.319199185940e+000 -1.050937577109e+000 3.030379916017e+000 5.565806771166e-002 -3.607325370169e-001 3.327250885365e-001 -1.229407557784e-001 3.855107477411e-001 -9.494117777272e-001 -3.978442856564e-001 -2.423824863401e-001 8.814444809656e-001 8.293114146980e-001 -5.536362390964e-001 5.207133196842e+000 3.451510260251e+000 -1.967270559136e+000 -6.632036758779e-001 -1.625948398203e+000 6.564796270742e-001 -6.797701426462e-001 1.371907569224e-001 3.677336984405e-002 3.816352544174e+000
 1.184058651895e+000 9.517349434818e-002 -2.470486947360e-001 2.150860137908e+000 -8.024821553214e-001 -3.074039597964e+000 -1.708181858708e-001 -3.363194690395e-001 -1.531932007323e+000 6.164009238856e+000 2.203593131293e-001 -8.270121603831e-001 1.623855342594e+000 1.024691955646e+000 1.243338564959e+000 -1.948011699102e+000 5.757069042049e-001 3.417276285321e-001 -5.452500347231e-001 1.646175415513e-001 -4.103919133094e-001 -5.469735794497e-001 4.340894421544e-001 4.288212093413e-001 -1.061126145448e+000 -3.551025435435e-001 4.254961777088e-001 -4.751330296754e+000 -3.473059664114e+000 2.678946901222e+000 -1.242069513489e+000 4.905953242462e-001 4.511005604120e-001 -2.845434575855e-001 -3.359023715389e-001 -2.755999682873e-001 -2.339626054626e+000 2.726438426326e+000
 -2.894915903277e-001 -9.739058220230e-002 2.936460753501e-001 -1.442168929943e-001 1.974217646840e-001 7.974129775143e-001 3.897862207291e-001 2.323926457325e-001 1.298056968931e-001 -2.913102061109e-001 -2.491434796328e-001 -1.983540562601e-001 -6.387899913043e-002 -1.730188004287e-003 -1.221735855610e-001 1.233537163568e+000 1.095063909068e-002 -4.245674809491e-001 -2.797208987981e-002 -4.090270765393e-002 -6.117570327513e-002 -1.204155887196e+000 1.894209902597e-001 1.702123656067e-001 -1.130133972847e-001 1.456651985069e-001 4.110172750533e-002 4.899828089083e-001 5.810966775422e-001 -9.927181640997e-001 -4.986545316840e-002 2.385839432365e-004 -1.578043200401e-001 -5.116394309650e-001 -2.836338431638e-001 -5.394679534467e-001 7.619978332844e-001 -3.365660305647e-001 1.315232979758e+000
 -7.550216495700e-001 1.296075968515e+000 2.049553094244e-001 1.538148338668e+000 -2.652034464321e+000 -1.428306243297e-001 -3.355055731922e-001 -1.004801849788e+000 -1.864105907975e-001 -2.432361866426e+000 6.900332819209e-001 1.072181755931e+000 -3.874318513119e+000 -8.713208412218e-001 -7.435971785427e-001 -8.219056068610e+000 1.784017773438e+000 2.089734448394e+000 -4.404564426850e-001 -3.943499807489e-001 -4.184052227695e-001 -1.387678038806e+000 -2.773874368202e-001 3.994144993086e-001 1.383261157425e+000 -1.207352427122e+000 -5.642017635411e-001 7.300485949462e-001 1.175039644321e+000 -4.628149914332e-001 3.799876914282e+000 6.577828802862e-001 4.087724959506e-001 -3.994008494167e-002 1.166613323912e+000 4.736411615779e-001 3.919667471494e-002 -3.659901217831e-001 -4.673215102857e-001 7.794259942978e+000
 -9.385551136218e-001 -1.743467234228e-001 3.171889639351e-003 -5.766952753269e-001 -2.511793855316e-002 3.034472342861e-001 2.326208586889e-002 1.551555846319e-001 4.711889723712e-001 -2.850148175959e+000 1.506131226072e-001 6.662981974550e-001 -7.227439838521e-001 -6.074363660379e-001 -5.419248105190e-001 -6.018559901723e-001 8.265934707807e-002 3.198684626479e-001 2.235644401972e-001 -1.456100106719e-001 2.334295722280e-001 4.947790609230e-002 -1.907867332008e-001 4.267388844524e-002 5.725502357712e-001 9.212487883988e-002 -2.966749880900e-001 1.979774091113e+000 1.466448944944e+000 -7.383593321583e-001 3.697011385763e-001 -5.844905533854e-001 8.570865328203e-002 -7.990156249547e-002 3.273268417682e-001 2.137882127486e-001 1.217936605593e+000 -9.701946220249e-001 1.021486956506e-002 1.281660424789e+000 1.311476278538e+000
 8.607076683089e-001 5.648281615856e-002 -2.228098887010e+000 2.527635879320e-001 -6.022891654562e-002 -3.310559334265e+000 4.041169906502e-001 6.076327405180e-001 -1.064904273155e-001 7.527662127924e-001 4.306873844110e-001 4.332635372918e-001 1.749402671320e+000 -1.455152475117e-001 5.137634412137e-001 -2.705135964733e-001 4.848015734421e-001 1.571799221773e-001 -1.399854410519e-001 1.571111368321e-001 1.167598620145e-002 -3.872230751068e-001 6.053380913658e-002 2.291508915298e-001 -2.716649721223e-001 3.612687178072e-001 -7.481741415305e-002 -7.390332028085e-001 -4.006221555010e-001 1.190969625573e+000 -2.382494180450e+000 -1.306973637490e+000 5.650104560858e-001 -3.284412241261e-001 4.877392828189e-002 3.284935524437e-001 2.695175426006e-001 3.645644248791e-001 -6.782817937202e-002 -4.160287780756e-001 -5.290646595749e-001 2.410491265192e+000
 -2.604297640628e+000 2.676253305762e-001 3.869457640472e-001 -3.821167968051e-001 4.029346228183e-001 1.314379418490e+000 1.590330308691e-001 1.962564372752e-001 3.127470746292e-001 -1.138671583903e+000 -1.700517137297e-001 -4.425295855999e-002 -2.493296519969e-001 -2.823493138826e-002 -3.701117932093e-001 1.013599749254e+000 -2.904829004847e-001 -1.457213892826e-001 1.232145226769e-001 -1.910624326675e-001 1.287785406221e-001 -6.431347727587e-001 1.391710451267e-001 1.948901947029e-001 5.076059980402e-002 1.950519074373e-001 -2.445517582104e-002 1.074581878832e+000 5.850055601950e-001 -8.499372474871e-001 2.112717698585e-001 -1.443325411105e-001 -1.688074061158e-001 -1.857955865848e-001 -8.335886451243e-002 -1.813130438140e-001 7.573537446730e-001 -4.359381185719e-001 3.515071492137e-001 -5.475069904756e-001 4.130086970800e-001 -3.625433945387e-001 2.517819420642e+000
 8.533629921420e-001 3.656066640543e-001 1.646643313543e+000 8.385016781370e-001 -2.822804709373e-001 1.834886343559e+000 -3.478195801292e-001 -8.634710029757e-001 -4.174437857017e-001 2.357209513971e+000 -1.907378285746e-001 -8.662022980479e-001 -9.940240102587e-001 6.690497221559e-001 1.956079247062e-001 -7.429473688387e-001 -2.737096562099e-001 -4.236784365758e-002 -1.510458481215e-001 1.731553689353e-002 -3.153857487715e-001 2.207233001474e-001 3.826434600349e-002 -4.359129148437e-001 -2.628855462814e-001 -6.425055649833e-001 3.267002982505e-001 -1.951929543629e+000 -1.329097013631e+000 1.041654805255e-001 1.714186215276e+000 1.480989237282e+000 -1.177246561246e+000 3.895536392407e-001 -9.910170982298e-001 -5.049913845775e-001 -1.846942505632e+000 8.987572988234e-001 -1.768736617920e-001 3.685408927771e-001 -9.426463808006e-001 -3.260060385543e-001 -8.313759128441e-001 2.523397643913e+000
 8.280940007102e-001 -3.744374469568e-001 -6.058001074342e-001 2.243533269155e-001 1.910552063673e-001 -1.849488942999e+000 1.723917626230e-001 3.020616889443e-001 -2.014897704829e-001 6.342834569824e-001 4.457086616981e-001 1.683952984620e-001 1.370674839925e+000 1.236595716146e-001 4.699675288536e-001 3.418012925437e-001 8.663220427743e-002 -1.776903227745e-001 -2.394626045461e-002 1.452150943446e-001 2.491884974216e-002 2.325619693198e-001 -5.087245184657e-003 -1.435673105230e-002 -3.669842783443e-001 1.983762656967e-001 4.863029685659e-002 -9.433374808995e-001 -6.443927611332e-001 8.806010861768e-001 -1.457452845500e+000 -4.942942958417e-001 5.377609850874e-001 -1.141379055422e-001 -2.397536430398e-001 7.690333471633e-002 -1.949617451017e-001 4.722827480960e-001 -5.058134147338e-002 -1.073687264589e+000 5.727738143965e-002 1.075100997368e-001 -2.859242461359e-001 -2.346372030056e-001 7.052775037129e-001
 3.904393764414e-001 -5.658216331864e-001 3.709297979181e-001 5.599732101140e-001 -4.346244473478e-001 -1.068275713550e+000 4.107615263262e+000 9.595196062256e-001 2.466035808846e+000 1.096044076603e+001 -3.766315744529e+000 -3.016349529535e+000 6.470633051612e-001 5.046361604786e-001 1.745778441152e-001 -2.780599283002e+001 -6.088790580611e+000 1.687306767481e+000 -3.399740174057e+000 1.877930091339e+000 -2.820750370522e+000 8.358482589297e+000 -3.745035264407e+000 -5.762210964338e+000 -1.758448365218e-002 -4.360616135864e-002 7.384725783796e-003 -1.867641419812e+000 -8.320295561105e-001 8.104128112048e-001 -5.419880489632e-001 -1.477988114692e-001 8.631776726217e-002 1.018427502679e-001 1.123848235343e-001 4.332823965844e-001 -9.814814379625e-001 4.568856873318e-001 -4.223666184688e-001 2.850137322078e-001 1.334176347833e-002 1.472684091224e-001 2.425230156600e-002 3.980113045994e-002 1.064073440784e-001 3.122024813792e+001
 4.217166898402e-002 -1.281159537488e-001 1.179557240982e+000 -9.738564660671e-002 -1.466127459221e-001 5.804487008266e-001 8.730489310628e-001 -1.983427765960e-001 8.217088852186e-001 3.573123457691e+000 -1.381519632313e+000 -9.501569022203e-001 -8.817102781415e-001 1.798392375028e-001 -1.032518886208e-002 -8.226837796171e+000 -1.972989819383e+000 3.197456292769e-001 2.424143994244e+000 -1.897141743705e+000 2.350783548626e+000 1.461101319005e+000 -7.131404504192e-001 -1.667365159176e+000 1.704962911125e-001 -2.452367840549e-001 1.077324164282e-002 -6.340590010120e-001 -2.366046804027e-001 4.639176649085e-002 8.600331718925e-001 5.091784709818e-001 -5.329864512987e-001 3.243267631599e-001 4.951941348229e-002 2.610609413763e-002 -8.041308798463e-001 2.452893999937e-002 -2.279068046467e-001 2.084679790069e-001 1.901966521939e-002 -4.007506623282e-001 8.109523166870e-002 4.262793798886e-001 -1.733629057652e-001 6.208340411918e+000 5.036079294612e+000
 2.465369193414e-002 3.047903647433e-001 -1.304778217482e+000 8.034248341794e-001 -3.980127074537e-001 -1.511956030969e+000 -1.885771041066e-001 1.851801020506e-001 -6.557005642218e-001 -7.175445639682e-001 8.908675465468e-001 3.918976153525e-001 7.973513609637e-001 -8.358536568655e-002 2.343118070282e-001 1.511066911007e+000 1.091811026399e+000 3.760890219339e-001 -3.508376133114e+000 2.328753192454e+000 -3.245220636355e+000 -6.755609441676e-002 5.475119152015e-002 7.424774545007e-001 -1.907895061292e-001 1.721327210238e-002 -5.699299595586e-003 -5.729391121779e-001 -3.851503239242e-001 5.119445490606e-001 -7.634215350039e-001 -4.072643800930e-001 7.803280695775e-001 -3.413701549579e-001 7.796069855525e-002 8.153421615772e-002 1.657274250916e-001 4.657583425896e-001 6.455493648582e-002 6.967260745732e-001 -6.189988237899e-002 4.502264532127e-001 -1.723361782834e-001 -2.596294135078e-001 1.741193197773e-001 1.352423886025e+000 -2.778231342643e+000 4.068132838508e+000
 1.830068691984e+000 -6.804134193477e-001 -6.214970129548e-001 4.056567697353e-001 -1.775779452828e-001 -1.382130144432e+000 1.248183941995e+000 7.139731871798e-001 6.744446709133e-002 -1.955149306786e+001 1.001397412669e+001 5.995633974620e+000 -1.828965226026e+000 -2.692246027042e+000 1.721584735126e+000 5.433596724513e+000 3.135415458677e+000 -1.141907611001e+000 6.790910915185e-001 -9.923490816320e-002 3.191741716467e-001 7.590652303685e+000 -3.066211711174e+000 -2.559047221500e+000 -3.102092775711e-001 -1.667696147758e-001 3.002028997642e-002 -5.130550813544e-001 -1.888124208559e-001 7.879582163328e-001 -8.196015367782e-001 -1.110302024637e-001 3.603805847810e-001 2.656684766718e-001 -5.373465049830e-004 6.478699768042e-001 -1.841571847863e-001 3.973687519580e-001 -4.251479125084e-001 9.570683970867e-001 -1.397903084434e-002 3.815023495827e-001 -5.189170976569e-001 2.850864085004e-001 6.854979708459e-001 -8.357741498628e+000 -2.241906292365e+000 1.150497118758e+000 2.394558943806e+001
 -8.677726228619e-001 3.375825705487e-001 -1.113553309051e+000 -3.918971200193e-002 3.759750404839e-001 -5.000988166038e-001 -6.217245674106e-001 -6.490360844167e-002 -2.682340657840e-001 9.894205536476e+000 -4.612958467265e+000 -2.883282865541e+000 -1.237825876723e+000 -1.490404295657e+000 9.530826111136e-001 -1.395280153331e+000 -1.621335278426e+000 9.604815933800e-001 1.064075661488e-001 -2.044176192938e-001 3.227997429839e-001 -2.335061697517e+000 1.318136590557e+000 1.241608803016e+000 -1.023684028948e-001 3.525311131488e-001 2.241584428181e-002 -4.593784092278e-002 -1.790934128697e-001 4.685848154567e-002 -9.225389703634e-001 -5.747989112613e-001 3.166285265968e-001 -2.692488713433e-001 -6.473324485529e-002 -2.686474333627e-001 2.229527523328e-001 4.926211191118e-002 2.555822635939e-001 -1.384796670079e+000 -1.521969160668e-001 3.300258704601e-001 6.898969536096e-003 -4.916259665554e-001 -5.634241601070e-002 3.491074663349e+000 1.186285782700e+000 -8.734712968327e-001 -8.189705643224e+000 7.033224344391e+000
 -1.821418335309e-001 2.775152608485e-001 1.010614792333e+000 1.480441444538e-001 -6.342283448702e-002 1.129075725728e+000 -6.234959209343e-001 -5.906987539827e-001 -2.534307802657e-001 6.848600205093e+000 -3.134689137607e+000 -2.116877771047e+000 5.840123595441e-001 1.486573430667e+000 -6.377394308859e-001 -2.336555056935e+000 -1.120081373005e+000 2.214306342223e-001 -2.396390533292e-001 7.802261760629e-002 -2.181614204044e-001 -1.917059082028e+000 9.078551363259e-001 6.019405283755e-001 -8.491758500445e-003 -1.982941032174e-001 1.204585712258e-001 -6.432747872479e-001 -4.842365254354e-001 -1.495286311172e-001 9.292106630615e-001 6.461498999736e-001 -6.054983674792e-001 1.133334492560e-001 -8.598842538694e-002 -3.249308755482e-001 -7.125018234569e-001 2.364622797425e-001 2.056976193948e-002 -2.699050777189e-001 -2.466036950921e-001 -3.728909919350e-001 -5.473577815709e-003 4.849349785781e-001 -2.514995636003e-001 2.854449080929e+000 8.550293282404e-001 -5.654065953371e-001 -7.545948615243e+000 1.940748702106e+000 2.902180226643e+000
 -1.006237499915e+000 1.369277366352e+000 8.401919020051e-001 1.129269499333e+000 -1.161713782277e-001 -6.664024644267e-001 4.922567193775e+000 5.525501462623e-001 3.308918509706e+000 1.007133433227e+001 -4.518331406130e+000 -2.450043127861e+000 -2.145483808134e-002 1.850905847437e+000 -3.153232894173e-001 1.128191796990e+001 2.928040046973e+000 -3.060092916295e-001 -2.911711260915e-001 -6.393330347363e-001 1.165794592274e+000 -3.493853739721e+001 5.987445484800e+000 2.611785908687e+000 -9.198420073005e-002 -3.913714127931e-001 5.214522212247e-002 -1.844854910026e+000 -1.555970947454e+000 3.015605671564e-001 7.633523557815e-001 5.976404493586e-001 2.941717543334e-001 -2.092073695863e-001 -1.258863804157e-001 -5.511985817201e-001 -9.150033955490e-001 8.357148067897e-001 6.993270951602e-001 3.792370951447e-001 -2.906171081790e-001 -2.440802592855e-001 5.627721002204e-001 2.844867888265e-001 -3.380389097681e-001 -1.142193607221e+001 -2.330364705353e+000 2.175010214788e-002 -8.885280436570e+000 3.690848633272e+000 2.570876863013e+000 3.940158831670e+001
 4.709928371819e-001 -4.299241380496e-001 -1.105471835397e+000 -4.530676501599e-002 -9.442577163014e-002 -1.087161116611e+000 -1.232796395197e+000 2.790884343742e-001 -9.575488042319e-001 -3.532750948802e+000 1.583993306933e+000 9.637218838995e-001 8.286771359309e-001 -5.909584986223e-001 1.120805819986e-001 -2.752912825384e+000 -2.951328925608e-001 1.243896743673e-001 -4.696352476052e-003 -1.616458005385e-001 -3.538616939115e-001 1.013754843510e+001 -2.000574950409e+000 -6.774668043028e-001 -8.600279718897e-002 2.548363047516e-001 -7.270652367186e-002 7.110673308056e-001 5.342299327288e-001 2.095788226675e-001 -1.045338687784e+000 -7.012914237461e-001 5.588578764671e-001 -1.964688373938e-001 8.951427819775e-002 2.998160275501e-001 7.261348616621e-001 -1.634890749030e-001 -1.362148642438e-001 1.025929628831e-001 1.762199737796e-001 4.878091742848e-001 -2.449359325733e-001 -4.527098220176e-001 2.591129323129e-001 2.333408234204e+000 1.916752558626e-001 3.204698887033e-001 2.548966562640e+000 -1.251558407422e+000 -7.797465546847e-001 -1.349219345368e+001 6.158350194550e+000