 Job started on host DESKTOP-5CQNRD0
 at Fri Aug 23 13:21:32 2019

 +-------------------------------------------------+
 |                                                 |
 |      CCC   AA    SSS  TTTTT  EEEEE  PPPP        |
 |     C     A  A  S       T    E      P   P       |
 |     C     AAAA   SS     T    EEE    PPPP        |
 |     C     A  A     S    T    E      P           |
 |      CCC  A  A  SSS     T    EEEEE  P           |
 |                                                 |
 +-------------------------------------------------+
 |                                                 |
 | Materials Studio CASTEP version 2017            |
 | Ab Initio Total Energy Program                  |
 |                                                 |
 | Authors:                                        |
 | M. Segall, M. Probert, C. Pickard, P. Hasnip,   |
 | S. Clark, K. Refson, J. R. Yates, M. Payne      |
 |                                                 |
 | Contributors:                                   |
 | P. Lindan, P. Haynes, J. White, V. Milman,      |
 | N. Govind, M. Gibson, P. Tulip, V. Cocula,      |
 | B. Montanari, D. Quigley, M. Glover,            |
 | L. Bernasconi, A. Perlov, M. Plummer,           |
 | E. McNellis, J. Meyer, J. Gale, D. Jochym       |
 | J. Aarons, B. Walker, R. Gillen, D. Jones       |
 | T. Green, I. J. Bush, C. J. Armstrong,          |
 | E. J. Higgins, E. L. Brown, M. S. McFly         |
 |                                                 |
 | Copyright (c) 2000 - 2016                       |
 |                                                 |
 | Please cite                                     |
 |                                                 |
 |     "First principles methods using CASTEP"     |
 |                                                 |
 |         Zeitschrift fuer Kristallographie       |
 |           220(5-6) pp. 567-570 (2005)           |
 |                                                 |
 | S. J. Clark, M. D. Segall, C. J. Pickard,       |
 | P. J. Hasnip, M. J. Probert, K. Refson,         |
 | M. C. Payne                                     |
 |                                                 |
 |       in all publications arising from          |
 |              your use of CASTEP                 |
 |                                                 |
 +-------------------------------------------------+
 
 
 This version was compiled for x86_64-windows-msvc2008 on May 05 2016
 Intel(R) Math Kernel Library Version 11.1.2 
 Fundamental constants values: CODATA 2010
 
License checkout of MS_castep successful
 
 
 Atomic calculation performed for C: 1s2 2s2 2p2
 
 Converged in 54 iterations to an ae energy of -1027.632 eV
 
 Identity difference: 2.37E-04
 
   ============================================================                
   | Pseudopotential Report - Date of generation 23-08-2019   |                
   ------------------------------------------------------------                
   | Element: C Ionic charge:  4.00 Level of theory: PBE      |                
   | Atomic Solver: Koelling-Harmon                           |                
   |                                                          |                
   |               Reference Electronic Structure             |                
   |         Orbital         Occupation         Energy        |                
   |            2s              2.000           -0.505        |                
   |            2p              2.000           -0.194        |                
   |                                                          |                
   |                 Pseudopotential Definition               |                
   |        Beta     l      e      Rc     scheme   norm       |                
   |          1      0   -0.505   1.395     qc      0         |                
   |          2      0    0.250   1.395     qc      0         |                
   |          3      1   -0.194   1.395     qc      0         |                
   |          4      1    0.250   1.395     qc      0         |                
   |         loc     2    0.000   1.395     pn      0         |                
   |                                                          |                
   | Augmentation charge Rinner = 0.983                       |                
   | Partial core correction Rc = 0.983                       |                
   ------------------------------------------------------------                
   | "2|1.4|11|12|14.7|20UU:21UU(qc=7)[]"                     |                
   ------------------------------------------------------------                
   |      Author: Chris J. Pickard, Cambridge University      |                
   ============================================================                
 
 Doing a self consistent calculation for the test configuration
 
 Atomic calculation performed for C: 1s2 2s2 2p2
 
 Converged in 54 iterations to an ae energy of -1027.632 eV
 
 ---------------------------------------
 AE eigenvalue nl 10 =      -10.04653081
 AE eigenvalue nl 20 =       -0.50533429
 AE eigenvalue nl 21 =       -0.19423807
 ---------------------------------------
 PS eigenvalue nl 20 =       -0.50531853
 PS eigenvalue nl 21 =       -0.19422214
 ---------------------------------------
 Maximum eigenvalue error:   1.59E-05
 
 Derived cutoff energies: C=   6 M=  10 F=  12 E=  16
 
 
 ***************************************
 
 Atomic calculation performed for O: 1s2 2s2 2p4
 
 Converged in 61 iterations to an ae energy of -2040.902 eV
 
 Identity difference: 4.10E-04
 
   ============================================================                
   | Pseudopotential Report - Date of generation 23-08-2019   |                
   ------------------------------------------------------------                
   | Element: O Ionic charge:  6.00 Level of theory: PBE      |                
   | Atomic Solver: Koelling-Harmon                           |                
   |                                                          |                
   |               Reference Electronic Structure             |                
   |         Orbital         Occupation         Energy        |                
   |            2s              2.000           -0.881        |                
   |            2p              4.000           -0.332        |                
   |                                                          |                
   |                 Pseudopotential Definition               |                
   |        Beta     l      e      Rc     scheme   norm       |                
   |          1      0   -0.881   1.100     qc      0         |                
   |          2      0    0.250   1.100     qc      0         |                
   |          3      1   -0.332   1.100     qc      0         |                
   |          4      1    0.250   1.100     qc      0         |                
   |         loc     2    0.000   1.100     pn      0         |                
   |                                                          |                
   | Augmentation charge Rinner = 0.769                       |                
   | Partial core correction Rc = 0.769                       |                
   ------------------------------------------------------------                
   | "2|1.1|14|18|21|20UU:21UU(qc=7)[]"                       |                
   ------------------------------------------------------------                
   |      Author: Chris J. Pickard, Cambridge University      |                
   ============================================================                
 
 Doing a self consistent calculation for the test configuration
 
 Atomic calculation performed for O: 1s2 2s2 2p4
 
 Converged in 61 iterations to an ae energy of -2040.902 eV
 
 ---------------------------------------
 AE eigenvalue nl 10 =      -18.91475256
 AE eigenvalue nl 20 =       -0.88057101
 AE eigenvalue nl 21 =       -0.33186952
 ---------------------------------------
 PS eigenvalue nl 20 =       -0.88059206
 PS eigenvalue nl 21 =       -0.33182157
 ---------------------------------------
 Maximum eigenvalue error:   4.80E-05
 
 Derived cutoff energies: C=  14 M=  17 F=  20 E=  22
 
 
 ***************************************
 
 Pseudo atomic calculation performed for C 2s2 2p2
 
 Converged in 18 iterations to a total energy of -148.5199 eV
 
 
 Pseudo atomic calculation performed for O 2s2 2p4
 
 Converged in 24 iterations to a total energy of -432.6196 eV
 
 Calculation parallelised over 2 processes.
 Data is distributed by G-vector(2-way)

 ************************************ Title ************************************
 CASTEP calculation from Materials Studio

 ***************************** General Parameters ******************************
  
 output verbosity                               : normal  (1)
 write checkpoint data to                       : CO.check
 type of calculation                            : geometry optimization
 stress calculation                             : off
 density difference calculation                 : off
 electron localisation func (ELF) calculation   : off
 Hirshfeld analysis                             : off
 unlimited duration calculation
 timing information                             : on
 memory usage estimate                          : on
 write final potential to formatted file        : off
 write final density to formatted file          : off
 write BibTeX reference list                    : on
 write OTFG pseudopotential files               : on
 checkpoint writing                             : both castep_bin and check files
  
 output         length unit                     : A
 output           mass unit                     : amu
 output           time unit                     : ps
 output         charge unit                     : e
 output           spin unit                     : hbar/2
 output         energy unit                     : eV
 output          force unit                     : eV/A
 output       velocity unit                     : A/ps
 output       pressure unit                     : GPa
 output     inv_length unit                     : 1/A
 output      frequency unit                     : cm-1
 output force constant unit                     : eV/A**2
 output         volume unit                     : A**3
 output   IR intensity unit                     : (D/A)**2/amu
 output         dipole unit                     : D
 output         efield unit                     : eV/A/e
 output        entropy unit                     : J/mol/K
  
 wavefunctions paging                           : none
 random number generator seed                   : randomised (132156312)
 data distribution                              : optimal for this architecture
 optimization strategy                          : balance speed and memory

 *********************** Exchange-Correlation Parameters ***********************
  
 using functional                               : Perdew Burke Ernzerhof
 relativistic treatment                         : Koelling-Harmon
 DFT+D: Semi-empirical dispersion correction    : off

 ************************* Pseudopotential Parameters **************************
  
 pseudopotential representation                 : reciprocal space
 <beta|phi> representation                      : reciprocal space
 spin-orbit coupling                            : off

 **************************** Basis Set Parameters *****************************
  
 plane wave basis set cut-off                   :   571.4000   eV
 size of standard grid                          :     1.7500
 size of   fine   grid                          :     2.1000
 size of   fine   gmax                          :    25.7175   1/A
 largest prime factor in FFT                    :          5
 finite basis set correction                    : none

 **************************** Electronic Parameters ****************************
  
 number of  electrons                           :  10.00    
 net charge of system                           :  0.000    
 treating system as non-spin-polarized
 number of bands                                :          9

 ********************* Electronic Minimization Parameters **********************
  
 Method: Treating system as metallic with density mixing treatment of electrons,
         and number of  SD  steps               :          1
         and number of  CG  steps               :          4
  
 total energy / atom convergence tol.           : 0.1000E-05   eV
 eigen-energy convergence tolerance             : 0.2222E-06   eV
 max force / atom convergence tol.              : ignored
 convergence tolerance window                   :          3   cycles
 max. number of SCF cycles                      :        100
 number of fixed-spin iterations                :         10
 smearing scheme                                : Gaussian
 smearing width                                 : 0.1000       eV
 Fermi energy convergence tolerance             : 0.2721E-13   eV
 periodic dipole correction                     : NONE

 ************************** Density Mixing Parameters **************************
  
 density-mixing scheme                          : Pulay
 max. length of mixing history                  :         20
 charge density mixing amplitude                : 0.5000    
 cut-off energy for mixing                      :  571.4       eV
 charge density mixing g-vector                 :  1.500       1/A

 ********************** Geometry Optimization Parameters ***********************
  
 optimization method                            : BFGS
 variable cell method                           : fixed basis quality
 max. number of steps                           :        100
 estimated bulk modulus                         :  500.0       GPa
 estimated <frequency>                          :  1668.       cm-1
 geom line minimiser                            : on
 with line minimiser tolerance                  :     0.4000
 total energy convergence tolerance             : 0.1000E-04   eV/atom
        max ionic |force| tolerance             : 0.3000E-01   eV/A
 max ionic |displacement| tolerance             : 0.1000E-02   A
   max |stress component| tolerance             : 0.5000E-01   GPa
 convergence tolerance window                   :          2   steps
 backup results every                           :          5   steps

 *******************************************************************************
  
 
                           -------------------------------
                                      Unit Cell
                           -------------------------------
        Real Lattice(A)                      Reciprocal Lattice(1/A)
  10.0000000   0.0000000   0.0000000        0.6283185   0.0000000   0.0000000
   0.0000000  10.0000000   0.0000000        0.0000000   0.6283185   0.0000000
   0.0000000   0.0000000  10.0000000        0.0000000   0.0000000   0.6283185
 
                       Lattice parameters(A)       Cell Angles
                    a =   10.000000          alpha =   90.000000
                    b =   10.000000          beta  =   90.000000
                    c =   10.000000          gamma =   90.000000
 
                       Current cell volume = 1000.000000       A**3
 
                           -------------------------------
                                     Cell Contents
                           -------------------------------
                         Total number of ions in cell =    2
                      Total number of species in cell =    2
                        Max number of any one species =    1
 
            xxxxxxxxxxxxxxxxxxxxxxxxxxxxxxxxxxxxxxxxxxxxxxxxxxxxxxxxxxxx
            x  Element    Atom        Fractional coordinates of atoms  x
            x            Number           u          v          w      x
            x----------------------------------------------------------x
            x  C            1         0.000000   0.000000   0.000000   x 
            x  O            1         0.000000   0.000000   0.112830   x 
            xxxxxxxxxxxxxxxxxxxxxxxxxxxxxxxxxxxxxxxxxxxxxxxxxxxxxxxxxxxx
 
 
                         No user defined ionic velocities
 
                           -------------------------------
                                   Details of Species
                           -------------------------------
 
                               Mass of species in AMU
                                    C   12.0109997
                                    O   15.9989996
 
                          Electric Quadrupole Moment (Barn)
                                    C    0.0332700 Isotope 11
                                    O   -0.0255800 Isotope 17
 
                          Files used for pseudopotentials:
                                    C 2|1.4|11|12|14.7|20UU:21UU(qc=7)[]
                                    O 2|1.1|14|18|21|20UU:21UU(qc=7)[]
 
                           -------------------------------
                              k-Points For BZ Sampling
                           -------------------------------
                       MP grid size for SCF calculation is  1  1  1
                            with an offset of   0.000  0.000  0.000
                       Number of kpoints used =             1
 
                           -------------------------------
                               Symmetry and Constraints
                           -------------------------------
 
                      Maximum deviation from symmetry =  0.00000         ANG
 
         There are no symmetry operations specified or generated for this cell
         There are no ionic constraints specified or generated for this cell
                      Point group of crystal =     1: C1, 1, 1
                      Space group of crystal =    99: P4mm, P 4 -2
 
 
                         Centre of mass is NOT constrained
 
                         Number of cell constraints= 6
                         Cell constraints are:  0 0 0 0 0 0
 
                         External pressure/stress (GPa)
                          0.00000   0.00000   0.00000
                                    0.00000   0.00000
                                              0.00000
  
+---------------- MEMORY AND SCRATCH DISK ESTIMATES PER PROCESS --------------+
|                                                     Memory          Disk    |
| Baseline code, static data and system overhead        0.0 MB         0.0 MB |
| BLAS internal memory storage                          0.0 MB         0.0 MB |
| Model and support data                               78.9 MB       202.5 MB |
| Electronic energy minimisation requirements          42.1 MB         0.0 MB |
| Force calculation requirements                       49.7 MB         0.0 MB |
|                                               ----------------------------- |
| Approx. total storage required per process          128.6 MB       202.5 MB |
|                                                                             |
| Requirements will fluctuate during execution and may exceed these estimates |
+-----------------------------------------------------------------------------+
------------------------------------------------------------------------ <-- SCF
SCF loop      Energy           Fermi           Energy gain       Timer   <-- SCF
                               energy          per atom          (sec)   <-- SCF
------------------------------------------------------------------------ <-- SCF
Initial  -4.33451378E+002  0.00000000E+000                         9.41  <-- SCF
      1  -4.94583219E+002  5.14007445E+000   3.05659208E+001      10.06  <-- SCF
      2  -5.92488449E+002 -3.90300327E+000   4.89526147E+001      10.53  <-- SCF
      3  -5.96910695E+002 -3.83178824E+000   2.21112332E+000      10.83  <-- SCF
      4  -5.96190926E+002 -3.08111327E+000  -3.59884740E-001      12.47  <-- SCF
      5  -5.96078393E+002 -2.82295871E+000  -5.62665568E-002      13.92  <-- SCF
      6  -5.96063138E+002 -2.53888366E+000  -7.62727797E-003      15.06  <-- SCF
      7  -5.96062243E+002 -2.53942015E+000  -4.47422825E-004      17.05  <-- SCF
      8  -5.96062440E+002 -2.50135932E+000   9.83206005E-005      18.70  <-- SCF
      9  -5.96064024E+002 -2.42970705E+000   7.92105804E-004      20.03  <-- SCF
     10  -5.96066269E+002 -2.41388067E+000   1.12218429E-003      22.06  <-- SCF
     11  -5.96067493E+002 -2.40821150E+000   6.12197849E-004      24.11  <-- SCF
     12  -5.96069479E+002 -2.40795070E+000   9.93243192E-004      25.53  <-- SCF
     13  -5.96069865E+002 -2.41046240E+000   1.92795490E-004      26.58  <-- SCF
     14  -5.96070146E+002 -2.41200679E+000   1.40678225E-004      27.58  <-- SCF
     15  -5.96070277E+002 -2.41234923E+000   6.54530991E-005      28.55  <-- SCF
     16  -5.96070322E+002 -2.41133397E+000   2.24881918E-005      29.52  <-- SCF
     17  -5.96070345E+002 -2.41150248E+000   1.14802061E-005      30.47  <-- SCF
     18  -5.96070350E+002 -2.41150530E+000   2.34461395E-006      31.39  <-- SCF
     19  -5.96070354E+002 -2.41144029E+000   1.96201252E-006      32.36  <-- SCF
     20  -5.96070355E+002 -2.41146395E+000   4.77069444E-007      33.34  <-- SCF
     21  -5.96070355E+002 -2.41146896E+000   2.18384108E-007      34.33  <-- SCF
------------------------------------------------------------------------ <-- SCF
 
Final energy, E             =  -596.0703552754     eV
Final free energy (E-TS)    =  -596.0703552754     eV
(energies not corrected for finite basis set)
 
NB est. 0K energy (E-0.5TS)      =  -596.0703552754     eV
 

Writing analysis data to CO.castep_bin

Writing model to CO.check
 
+---------------- MEMORY AND SCRATCH DISK ESTIMATES PER PROCESS --------------+
|                                                     Memory          Disk    |
| Model and support data                               72.9 MB       202.5 MB |
| Electronic energy minimisation requirements          42.1 MB         0.0 MB |
| Geometry minimisation requirements                   48.9 MB         0.0 MB |
|                                               ----------------------------- |
| Approx. total storage required per process          164.0 MB       202.5 MB |
|                                                                             |
| Requirements will fluctuate during execution and may exceed these estimates |
+-----------------------------------------------------------------------------+
 
 
 *********************************** Forces ***********************************
 *                                                                            *
 *                        Cartesian components (eV/A)                         *
 * -------------------------------------------------------------------------- *
 *                   x                    y                    z              *
 *                                                                            *
 * C         1      0.00003             -0.00004             -1.18573         *
 * O         1     -0.00003              0.00004              1.18573         *
 *                                                                            *
 ******************************************************************************
 BFGS: finished iteration     0 with enthalpy= -5.96070355E+002 eV
  
 +-----------+-----------------+-----------------+------------+-----+ <-- BFGS
 | Parameter |      value      |    tolerance    |    units   | OK? | <-- BFGS
 +-----------+-----------------+-----------------+------------+-----+ <-- BFGS
 |  dE/ion   |   0.000000E+000 |   1.000000E-005 |         eV | No  | <-- BFGS
 |  |F|max   |   1.185733E+000 |   3.000000E-002 |       eV/A | No  | <-- BFGS
 |  |dR|max  |   0.000000E+000 |   1.000000E-003 |          A | No  | <-- BFGS
 +-----------+-----------------+-----------------+------------+-----+ <-- BFGS
  

================================================================================
 Starting BFGS iteration          1 ...
================================================================================
  
 +------------+-------------+-------------+-----------------+ <-- min BFGS
 |    Step    |   lambda    |   F.delta'  |    enthalpy     | <-- min BFGS
 +------------+-------------+-------------+-----------------+ <-- min BFGS
 |  previous  |    0.000000 |    0.616242 |     -596.070355 | <-- min BFGS
 +------------+-------------+-------------+-----------------+ <-- min BFGS
  

--------------------------------------------------------------------------------
 BFGS: starting iteration         1 with trial guess (lambda=  1.000000)
--------------------------------------------------------------------------------
 
                           -------------------------------
                                     Cell Contents
                           -------------------------------
 
            xxxxxxxxxxxxxxxxxxxxxxxxxxxxxxxxxxxxxxxxxxxxxxxxxxxxxxxxxxxx
            x  Element    Atom        Fractional coordinates of atoms  x
            x            Number           u          v          w      x
            x----------------------------------------------------------x
            x  C            1         0.000000  -0.000000  -0.000828   x
            x  O            1        -0.000000   0.000000   0.113658   x
            xxxxxxxxxxxxxxxxxxxxxxxxxxxxxxxxxxxxxxxxxxxxxxxxxxxxxxxxxxxx
 
 
------------------------------------------------------------------------ <-- SCF
SCF loop      Energy           Fermi           Energy gain       Timer   <-- SCF
                               energy          per atom          (sec)   <-- SCF
------------------------------------------------------------------------ <-- SCF
Initial  -5.95604920E+002  0.00000000E+000                        38.05  <-- SCF
      1  -5.96075710E+002 -2.49109527E+000   2.35395054E-001      38.80  <-- SCF
      2  -5.96076357E+002 -2.49111558E+000   3.23483117E-004      41.09  <-- SCF
      3  -5.96073103E+002 -2.53786608E+000  -1.62673546E-003      42.81  <-- SCF
      4  -5.96073464E+002 -2.56420074E+000   1.80484512E-004      44.36  <-- SCF
      5  -5.96073488E+002 -2.56512486E+000   1.18102530E-005      46.00  <-- SCF
      6  -5.96073533E+002 -2.56633227E+000   2.25886157E-005      47.67  <-- SCF
      7  -5.96073550E+002 -2.56755502E+000   8.76994462E-006      49.27  <-- SCF
      8  -5.96073594E+002 -2.56981422E+000   2.16513908E-005      50.81  <-- SCF
      9  -5.96073624E+002 -2.57016660E+000   1.51687924E-005      52.28  <-- SCF
     10  -5.96073661E+002 -2.57001815E+000   1.82887257E-005      53.83  <-- SCF
     11  -5.96073671E+002 -2.57005518E+000   5.41154728E-006      55.27  <-- SCF
     12  -5.96073682E+002 -2.56989575E+000   5.44253970E-006      56.75  <-- SCF
     13  -5.96073687E+002 -2.56975113E+000   2.52172071E-006      58.16  <-- SCF
     14  -5.96073689E+002 -2.56971466E+000   9.67982690E-007      59.56  <-- SCF
     15  -5.96073691E+002 -2.56975372E+000   7.06834771E-007      61.00  <-- SCF
     16  -5.96073691E+002 -2.56973498E+000   1.99692720E-007      62.41  <-- SCF
------------------------------------------------------------------------ <-- SCF
 
Final energy, E             =  -596.0736911389     eV
Final free energy (E-TS)    =  -596.0736911389     eV
(energies not corrected for finite basis set)
 
NB est. 0K energy (E-0.5TS)      =  -596.0736911389     eV
 
 
 *********************************** Forces ***********************************
 *                                                                            *
 *                        Cartesian components (eV/A)                         *
 * -------------------------------------------------------------------------- *
 *                   x                    y                    z              *
 *                                                                            *
 * C         1     -0.00000              0.00000              0.74442         *
 * O         1      0.00000             -0.00000             -0.74442         *
 *                                                                            *
 ******************************************************************************
  
 +------------+-------------+-------------+-----------------+ <-- min BFGS
 |    Step    |   lambda    |   F.delta'  |    enthalpy     | <-- min BFGS
 +------------+-------------+-------------+-----------------+ <-- min BFGS
 |  previous  |    0.000000 |    0.616242 |     -596.070355 | <-- min BFGS
 | trial step |    1.000000 |   -0.386885 |     -596.073691 | <-- min BFGS
 +------------+-------------+-------------+-----------------+ <-- min BFGS
  
 BFGS: finished iteration     1 with enthalpy= -5.96073691E+002 eV
  
 +-----------+-----------------+-----------------+------------+-----+ <-- BFGS
 | Parameter |      value      |    tolerance    |    units   | OK? | <-- BFGS
 +-----------+-----------------+-----------------+------------+-----+ <-- BFGS
 |  dE/ion   |   1.667932E-003 |   1.000000E-005 |         eV | No  | <-- BFGS
 |  |F|max   |   7.444195E-001 |   3.000000E-002 |       eV/A | No  | <-- BFGS
 |  |dR|max  |   8.276857E-003 |   1.000000E-003 |          A | No  | <-- BFGS
 +-----------+-----------------+-----------------+------------+-----+ <-- BFGS
  

================================================================================
 Starting BFGS iteration          2 ...
================================================================================
  
 +------------+-------------+-------------+-----------------+ <-- min BFGS
 |    Step    |   lambda    |   F.delta'  |    enthalpy     | <-- min BFGS
 +------------+-------------+-------------+-----------------+ <-- min BFGS
 |  previous  |    0.000000 |    0.386885 |     -596.073691 | <-- min BFGS
 +------------+-------------+-------------+-----------------+ <-- min BFGS
  

--------------------------------------------------------------------------------
 BFGS: starting iteration         2 with trial guess (lambda=  1.000000)
--------------------------------------------------------------------------------
 
                           -------------------------------
                                     Cell Contents
                           -------------------------------
 
            xxxxxxxxxxxxxxxxxxxxxxxxxxxxxxxxxxxxxxxxxxxxxxxxxxxxxxxxxxxx
            x  Element    Atom        Fractional coordinates of atoms  x
            x            Number           u          v          w      x
            x----------------------------------------------------------x
            x  C            1         0.000000  -0.000000  -0.000508   x
            x  O            1        -0.000000   0.000000   0.113338   x
            xxxxxxxxxxxxxxxxxxxxxxxxxxxxxxxxxxxxxxxxxxxxxxxxxxxxxxxxxxxx
 
 
------------------------------------------------------------------------ <-- SCF
SCF loop      Energy           Fermi           Energy gain       Timer   <-- SCF
                               energy          per atom          (sec)   <-- SCF
------------------------------------------------------------------------ <-- SCF
Initial  -5.96262222E+002  0.00000000E+000                        65.78  <-- SCF
      1  -5.96076467E+002 -2.53931766E+000  -9.28773983E-002      66.38  <-- SCF
      2  -5.96076560E+002 -2.53932011E+000   4.64510007E-005      67.97  <-- SCF
      3  -5.96075974E+002 -2.52092967E+000  -2.92934979E-004      69.55  <-- SCF
      4  -5.96076121E+002 -2.51090463E+000   7.37038715E-005      71.19  <-- SCF
      5  -5.96076130E+002 -2.51065841E+000   4.42026977E-006      72.56  <-- SCF
      6  -5.96076139E+002 -2.51016487E+000   4.32480515E-006      73.97  <-- SCF
      7  -5.96076133E+002 -2.50957047E+000  -3.12680017E-006      75.44  <-- SCF
      8  -5.96076134E+002 -2.50883395E+000   6.45624206E-007      76.75  <-- SCF
      9  -5.96076149E+002 -2.50873188E+000   7.65840684E-006      78.20  <-- SCF
     10  -5.96076158E+002 -2.50889880E+000   4.50571314E-006      79.70  <-- SCF
     11  -5.96076166E+002 -2.50903552E+000   3.82063129E-006      81.19  <-- SCF
     12  -5.96076170E+002 -2.50905801E+000   1.91794989E-006      82.50  <-- SCF
     13  -5.96076171E+002 -2.50913756E+000   7.22697325E-007      83.86  <-- SCF
     14  -5.96076172E+002 -2.50917245E+000   4.14058176E-007      85.20  <-- SCF
     15  -5.96076172E+002 -2.50915273E+000   8.87972414E-008      86.62  <-- SCF
------------------------------------------------------------------------ <-- SCF
 
Final energy, E             =  -596.0761720900     eV
Final free energy (E-TS)    =  -596.0761720900     eV
(energies not corrected for finite basis set)
 
NB est. 0K energy (E-0.5TS)      =  -596.0761720900     eV
 
 
 *********************************** Forces ***********************************
 *                                                                            *
 *                        Cartesian components (eV/A)                         *
 * -------------------------------------------------------------------------- *
 *                   x                    y                    z              *
 *                                                                            *
 * C         1     -0.00000              0.00000              0.02719         *
 * O         1      0.00000             -0.00000             -0.02719         *
 *                                                                            *
 ******************************************************************************
  
 +------------+-------------+-------------+-----------------+ <-- min BFGS
 |    Step    |   lambda    |   F.delta'  |    enthalpy     | <-- min BFGS
 +------------+-------------+-------------+-----------------+ <-- min BFGS
 |  previous  |    0.000000 |    0.386885 |     -596.073691 | <-- min BFGS
 | trial step |    1.000000 |    0.014132 |     -596.076172 | <-- min BFGS
 +------------+-------------+-------------+-----------------+ <-- min BFGS
  
 BFGS: finished iteration     2 with enthalpy= -5.96076172E+002 eV
  
 +-----------+-----------------+-----------------+------------+-----+ <-- BFGS
 | Parameter |      value      |    tolerance    |    units   | OK? | <-- BFGS
 +-----------+-----------------+-----------------+------------+-----+ <-- BFGS
 |  dE/ion   |   1.240476E-003 |   1.000000E-005 |         eV | No  | <-- BFGS
 |  |F|max   |   2.719116E-002 |   3.000000E-002 |       eV/A | Yes | <-- BFGS
 |  |dR|max  |   3.192210E-003 |   1.000000E-003 |          A | No  | <-- BFGS
 +-----------+-----------------+-----------------+------------+-----+ <-- BFGS
  

================================================================================
 Starting BFGS iteration          3 ...
================================================================================
  
 +------------+-------------+-------------+-----------------+ <-- min BFGS
 |    Step    |   lambda    |   F.delta'  |    enthalpy     | <-- min BFGS
 +------------+-------------+-------------+-----------------+ <-- min BFGS
 |  previous  |    0.000000 |    0.014132 |     -596.076172 | <-- min BFGS
 +------------+-------------+-------------+-----------------+ <-- min BFGS
  

--------------------------------------------------------------------------------
 BFGS: starting iteration         3 with trial guess (lambda=  1.000000)
--------------------------------------------------------------------------------
 
                           -------------------------------
                                     Cell Contents
                           -------------------------------
 
            xxxxxxxxxxxxxxxxxxxxxxxxxxxxxxxxxxxxxxxxxxxxxxxxxxxxxxxxxxxx
            x  Element    Atom        Fractional coordinates of atoms  x
            x            Number           u          v          w      x
            x----------------------------------------------------------x
            x  C            1         0.000000  -0.000000  -0.000496   x
            x  O            1        -0.000000   0.000000   0.113326   x
            xxxxxxxxxxxxxxxxxxxxxxxxxxxxxxxxxxxxxxxxxxxxxxxxxxxxxxxxxxxx
 
 
------------------------------------------------------------------------ <-- SCF
SCF loop      Energy           Fermi           Energy gain       Timer   <-- SCF
                               energy          per atom          (sec)   <-- SCF
------------------------------------------------------------------------ <-- SCF
Initial  -5.96083283E+002  0.00000000E+000                        90.02  <-- SCF
      1  -5.96076176E+002 -2.50798893E+000  -3.55362664E-003      90.67  <-- SCF
      2  -5.96076176E+002 -2.50798895E+000   5.44291552E-008      92.05  <-- SCF
      3  -5.96076173E+002 -2.50727587E+000  -1.45953785E-006      93.45  <-- SCF
      4  -5.96076175E+002 -2.50687036E+000   1.04599780E-006      94.83  <-- SCF
      5  -5.96076175E+002 -2.50688193E+000   7.68686527E-008      96.28  <-- SCF
      6  -5.96076175E+002 -2.50688523E+000   3.32878480E-008      97.64  <-- SCF
------------------------------------------------------------------------ <-- SCF
 
Final energy, E             =  -596.0761753565     eV
Final free energy (E-TS)    =  -596.0761753565     eV
(energies not corrected for finite basis set)
 
NB est. 0K energy (E-0.5TS)      =  -596.0761753565     eV
 
 
 *********************************** Forces ***********************************
 *                                                                            *
 *                        Cartesian components (eV/A)                         *
 * -------------------------------------------------------------------------- *
 *                   x                    y                    z              *
 *                                                                            *
 * C         1     -0.00000              0.00000             -0.00048         *
 * O         1      0.00000             -0.00000              0.00048         *
 *                                                                            *
 ******************************************************************************
  
 +------------+-------------+-------------+-----------------+ <-- min BFGS
 |    Step    |   lambda    |   F.delta'  |    enthalpy     | <-- min BFGS
 +------------+-------------+-------------+-----------------+ <-- min BFGS
 |  previous  |    0.000000 |    0.014132 |     -596.076172 | <-- min BFGS
 | trial step |    1.000000 |   -0.000250 |     -596.076175 | <-- min BFGS
 +------------+-------------+-------------+-----------------+ <-- min BFGS
  
 BFGS: finished iteration     3 with enthalpy= -5.96076175E+002 eV
  
 +-----------+-----------------+-----------------+------------+-----+ <-- BFGS
 | Parameter |      value      |    tolerance    |    units   | OK? | <-- BFGS
 +-----------+-----------------+-----------------+------------+-----+ <-- BFGS
 |  dE/ion   |   1.633234E-006 |   1.000000E-005 |         eV | Yes | <-- BFGS
 |  |F|max   |   4.814228E-004 |   3.000000E-002 |       eV/A | Yes | <-- BFGS
 |  |dR|max  |   1.210213E-004 |   1.000000E-003 |          A | Yes | <-- BFGS
 +-----------+-----------------+-----------------+------------+-----+ <-- BFGS
  
 BFGS: Geometry optimization completed successfully.

================================================================================
 BFGS: Final Configuration:
================================================================================
 
                           -------------------------------
                                     Cell Contents
                           -------------------------------
 
            xxxxxxxxxxxxxxxxxxxxxxxxxxxxxxxxxxxxxxxxxxxxxxxxxxxxxxxxxxxx
            x  Element    Atom        Fractional coordinates of atoms  x
            x            Number           u          v          w      x
            x----------------------------------------------------------x
            x  C            1         0.000000  -0.000000  -0.000496   x
            x  O            1        -0.000000   0.000000   0.113326   x
            xxxxxxxxxxxxxxxxxxxxxxxxxxxxxxxxxxxxxxxxxxxxxxxxxxxxxxxxxxxx
 
 
 BFGS: Final Enthalpy     = -5.96076175E+002 eV
 BFGS: Final <frequency>  unchanged from initial value
 
 *********************************** Forces ***********************************
 *                                                                            *
 *                        Cartesian components (eV/A)                         *
 * -------------------------------------------------------------------------- *
 *                   x                    y                    z              *
 *                                                                            *
 * C         1     -0.00000              0.00000             -0.00048         *
 * O         1      0.00000             -0.00000              0.00048         *
 *                                                                            *
 ******************************************************************************

Writing analysis data to CO.castep_bin

Writing model to CO.check
 
 A BibTeX formatted list of references used in this run has been written to 
 CO.bib
 
Initialisation time =      7.12 s
Calculation time    =     92.81 s
Finalisation time   =      0.92 s
Total time          =    100.86 s
  
Overall parallel efficiency rating: Satisfactory (64%)                          
  
Data was distributed by:-
G-vector (2-way); efficiency rating: Satisfactory (65%)                         
  
Parallel notes:
1) Calculation only took 100.0 s, so efficiency estimates may be inaccurate.    
