#BIOSYM hessian 1
@Type: Hessian Update
@Units
 distance: 	A
 energy: 	Kcal/Mol
#header
@natom 19

#label
L1      L2      L3      L4      L5      L6      L7      L8      L9      L10     L11     L12     L13     L14     L15     L16     L17     L18     L19

#element
Li Li Li Li Li Li Li Li Li Li Li Li Li Li Li Li Li Li Li

#matrix
57
 3.652661151898E+01
 -3.839197927596E+00 1.993207052652E+01
 -2.125737000166E+00 -2.916685173021E+00 9.400914287582E+00
 -2.065790265120E-01 -1.108942818864E-01 7.168438337373E-01 8.699828940611E+00
 2.207662172352E+00 1.023832218468E+00 -1.099782385026E+00 -2.933654906004E+00 1.771957852959E+01
 1.013713387317E+00 -3.547527922817E-01 -6.637674676097E-01 3.197600327377E+00 4.613609687347E+00 6.700362724803E+00
 -2.182915190907E+00 5.686628759788E-01 -8.545117863788E-01 -4.150300462728E-02 -7.200856754172E-01 1.522895096941E-01 1.532432629022E+01
 -3.577883633793E-01 1.158630589781E-01 6.843399376858E-01 4.340530672348E-02 -5.131557481098E-01 -6.311229757025E-02 2.289817919433E+00 2.945557515257E+01
 -2.319041234177E+00 -9.147578588533E-02 -1.114442620358E+00 -4.727434986651E-01 -1.903056014154E+00 -4.341072858572E-02 4.923750900578E+00 6.017697081633E+00 1.868710400885E+01
 7.920522022503E-01 8.337964034311E-01 -9.587559411411E-01 -1.184155710119E+00 -3.688932299014E-02 -1.383321240546E+00 -5.102724700831E-01 -6.143157120308E-01 6.266688416463E-01 4.743888662276E+00
 -1.103773350802E+00 1.431774357970E+00 -1.487763405605E-01 1.250760183897E-01 -1.765608474700E+00 -4.697027570483E-03 -7.158068239156E-01 1.558076344408E+00 4.483147162986E-01 -3.228287310488E+00 1.186613046156E+01
 -1.255487480812E+00 3.741887663234E-01 -3.260237092485E-01 -1.175556582897E+00 -1.077125598641E+00 -2.114727832543E-01 -9.703301638873E-01 2.739923503470E-01 4.409449079636E-01 9.154628181604E-01 4.567695077197E+00 5.051413492103E+00
 2.068541896213E-01 -4.892976838711E-01 -1.217733263217E-01 4.131216307021E-01 -2.650850386576E-01 3.235063888676E-01 -8.987904882034E-01 -6.054548645330E-01 1.251777605583E+00 -5.128988522701E-01 2.139036538057E+00 2.712763233971E-01 9.641493545248E+00
 -5.101478889614E-01 -8.444848051145E-01 -8.392820271749E-01 -4.631709850849E-01 -1.096869040802E+00 -4.098418508389E-01 -5.927719293888E-01 -5.994771518614E+00 3.416607397279E+00 5.504219234663E-01 -9.934931194053E-02 -3.978959793692E-02 -4.402047493723E-01 1.267672758365E+01
 1.456985897470E+00 1.218266030897E+00 1.142487832333E-01 1.234536113329E+00 3.029501290618E-01 -8.051602665763E-01 1.272420108994E+00 -4.867085013368E-01 1.582367475689E-01 -1.780119699551E+00 -1.136832076026E-01 -9.489663564443E-01 4.638469915976E+00 -8.639073120052E+00 3.028097380628E+01
 -6.833351828007E-01 -3.263788386005E-01 -2.069739325079E-01 8.942379644251E-01 -3.724700785567E-01 1.744871735072E+00 -3.836326354652E-02 2.065823907519E+00 1.281207748800E+00 -1.847455613539E+00 9.252676866171E-01 4.248697127894E-01 -1.084968338289E+00 -9.493389254610E-02 6.026040516626E-01 7.741505799385E+00
 8.139071837787E-01 -2.966419017811E-01 8.294639080832E-01 -7.289254093460E-01 1.582975895746E-02 5.793121806662E-01 -3.541313348312E-01 -6.246807257008E-01 -7.667711986545E-01 1.448177296272E-01 -3.442532609129E-01 -2.576699565333E-01 1.099101088156E+00 -7.200630618586E-01 6.872637894928E-01 -4.232847808989E-01 2.013214675638E+00
 -2.649066155751E-02 5.780362817579E-01 1.005534476018E+00 2.151042903573E+00 -2.913125264342E-01 4.512843042685E+00 1.306041556945E+00 4.397001377274E-01 -1.032259870257E+00 -3.752772819232E+00 2.548512738269E+00 -4.014560157933E-01 8.448668267177E-01 -2.244275943091E-01 -3.562980111580E-02 5.298434338803E+00 1.222334905007E+00 9.628237240502E+00
 -4.374480451642E-02 -2.483310561858E-02 8.599033106241E-01 -9.344540470375E-01 8.975562868565E-01 9.462237650264E-01 -4.637887104698E-01 -1.586431960755E-01 -1.449137900310E+00 -5.434281137487E-01 1.162531010378E+00 4.886570587107E-01 6.727612660855E-01 -6.921067820813E-01 -4.180354902419E-01 5.734633233753E-01 3.563703768478E-01 1.093050060863E+00 9.363575709971E+00
 -1.162688346923E+00 -3.010182460969E-01 4.423019112788E-02 1.526172663136E-01 -7.121935856089E+00 -1.025526400341E+00 4.469971156797E-01 -5.484297814093E-01 4.563422553860E-01 3.605086188028E-01 1.366220799873E-02 8.162849895035E-01 -1.573038506538E-01 1.309636112975E-01 -5.633942267126E-01 -9.341483736716E-01 -1.614188493785E+00 -1.348832767994E+00 -1.716240080007E+00 2.224874275758E+01
 -3.736406518999E-01 1.202783386970E+00 5.977319641375E-02 -2.375143541518E-01 -5.613354329012E-01 -8.556764946810E-01 1.173286397866E+00 -5.137330347332E-01 -4.097978920142E-02 -1.758599594393E-01 -2.744820863728E-01 -1.647282899976E-01 -3.343415366435E-01 -1.292790586071E+00 -8.802660177177E-02 -5.197055382835E-01 -7.670618414103E-01 -1.366936589953E+00 -6.242485619614E+00 1.471888202782E+01 2.556076931764E+01
 -2.375413414937E+00 6.474446759731E-01 4.076845530104E-01 -3.747887110795E+00 -4.229246254714E-01 -2.979583893805E-01 1.733785759081E+00 7.204776331045E-01 -3.902427048011E-01 3.091469992582E-01 5.802815817157E-01 1.322650022540E+00 -9.199319014128E-02 -1.620550767079E-01 -4.675284106102E-01 2.057246057425E+00 2.288591933259E+00 1.928801915107E+00 -9.805678966608E-01 -3.028792090823E-01 7.854968309115E-03 1.018819290178E+01
 2.964314421374E+00 -2.413416614861E-01 2.579842904476E-01 4.357562674623E+00 -1.196769999349E+00 2.336320147601E+00 -5.054852896151E-01 -1.322443695910E+00 -4.488711770674E-01 -2.842084176058E+00 1.025705225798E+00 -3.149245450464E+00 7.294633547583E-01 -4.735589132132E-01 3.410971241188E-01 -4.453827473212E+00 6.222180928901E-01 1.886575338270E+00 3.822927434472E-01 -1.212984587000E+00 -4.916582338231E-01 -8.282991391841E+00 1.781296017803E+01
 -3.630818309771E-01 -3.126305119618E-01 -1.600390334465E+00 -3.850329840065E+00 1.677459999316E+00 -1.361815024796E+00 -2.768029115915E-01 -1.733466156987E+00 -1.134421903062E+00 3.019901470709E+00 -1.337092183794E+00 2.176913890333E+00 -7.311697775669E-01 1.442457402914E-02 -6.728212974595E-01 -1.737008971947E+00 7.088010813132E-01 -3.640344900750E+00 -2.599623078667E-01 6.138166955555E-01 -2.303022531042E-01 4.865914018633E+00 -7.679463836278E+00 7.163027923863E+00
 -6.623829952131E+00 -4.238714264304E+00 -2.783176841283E+00 -5.620365975959E-01 -3.896961890696E-01 3.121030051853E-01 -3.861426413147E+00 2.220713788542E+00 -1.945086945330E+00 -1.012241991032E+00 -8.109723757513E-02 4.048418058424E-01 2.754333969367E-01 2.412379338112E+00 -2.893217725235E+00 2.286385493905E+00 -2.958569621416E-02 1.000425730315E+00 -4.661826041967E-02 1.338392030127E-01 -8.023825743448E-02 1.373352412629E+00 -3.187085847919E+00 1.476898630279E+00 1.945618826626E+01
 -2.623330562359E+00 -2.720122517007E+00 5.799739355593E-01 -2.439828384015E-01 -1.667657481119E+00 -1.413245524484E-02 2.364203262593E+00 -3.017944569439E+00 3.330538410445E+00 8.070657762993E-01 -1.674573918683E+00 -1.229971978553E+00 -7.243152462610E-01 4.134608416240E-01 -1.177986023024E-02 1.673445824932E+00 1.303377329509E-01 4.173555023254E-01 -4.181321498515E-01 -9.609056041475E-01 1.888686899941E+00 3.079666132596E-01 -1.177351828326E+00 -6.964565686328E-01 -5.614579429908E-01 2.945201349968E+01
 -8.722252861792E-01 -2.296065413333E-01 -4.189502319777E-01 1.020922038642E+00 -8.254628772523E-01 -6.668823544916E-01 -4.617179329096E+00 2.859414198710E+00 -2.696228455660E+00 1.404220905592E-01 2.731111435529E+00 1.437072468527E+00 -6.421782513562E-01 3.124459177110E-01 -1.328790541260E+00 -1.238065426605E+00 -9.776593396700E-01 -1.409934732099E+00 -3.198133768785E-02 -7.529214762512E-01 -5.050255367267E-01 -1.240864310477E+00 1.953089611903E+00 -8.459195213735E-01 4.495704494788E+00 4.981597191269E+00 1.972952140037E+01
 -1.004728117732E+00 -1.696616995255E-01 -1.499092062952E+00 1.279653333199E-02 -4.767865164550E-01 4.616485416580E-01 -5.804267744858E+00 -4.466483614667E+00 -1.371869249094E+00 -2.268175582004E+00 3.766519652843E+00 2.014202839200E+00 -3.762602973014E+00 -3.386182477713E-01 3.662927818323E-01 1.970248501838E+00 -8.723048560929E-01 9.659615539938E-01 -8.863614284171E-01 4.299344295030E-01 -5.043084477088E-01 -1.481465017234E-01 1.777533074727E+00 -8.941742039742E-01 -1.299949780768E+00 -1.028464041363E+00 1.183303818067E+00 1.685039802421E+01
 1.502412142608E+00 -1.663052947217E+00 4.560499679596E-01 1.592965406896E-01 1.646572794748E-01 3.475821319583E-01 -1.987809802593E+00 -1.823445612264E+00 -1.609939780296E+00 2.558628004056E+00 -7.496949921249E+00 -7.531082829000E-01 1.239785337087E-01 -2.265839010390E+00 -1.374796164210E-01 -8.630645945680E-01 -7.251859572372E-03 -9.724363420089E-01 -4.194663012869E-01 -6.033189433136E-01 3.592619297604E-01 -2.075449248555E+00 1.079295167859E+00 -1.876124895829E-01 -3.831254761976E-01 -5.808171746211E+00 1.854789179175E+00 7.496023963702E-01 1.723010509897E+01
 2.019246686633E+00 -3.423876031491E-01 -1.584267772431E+00 -1.207149084543E+00 1.716191220010E+00 -1.683375883442E-01 2.249093143183E-01 -1.263777824548E+00 3.430384598769E-01 7.247397570861E-01 -1.329949388974E+00 -2.711981823680E-01 6.537320296766E-01 2.771576254863E+00 8.073295744781E-01 -1.479641652900E+00 -5.876233499042E-01 -1.618472312500E+00 -4.957499839264E-01 6.002983937773E-01 -3.323410487748E-01 -4.540590054516E-02 -1.826955594006E+00 1.661755268261E+00 8.418519316498E-01 2.374786714083E+00 -3.602838544030E+00 3.743977196442E+00 -5.545324845315E-01 9.225939344027E+00
 -5.172017307438E-01 4.600126914100E+00 -1.217652611567E+00 6.509927920036E-01 -5.469326355566E-01 1.056172115967E+00 1.473986337327E+00 5.771014543237E-01 8.566428324404E-01 -6.540062664420E-01 1.140059572409E+00 -6.374686450699E-01 -2.116984494340E-01 1.981470096548E-01 -1.302623167725E+00 1.762485107556E+00 7.012255060684E-01 3.143162951491E+00 1.279732422531E-01 -1.131085313251E+00 4.654878258698E-01 5.413634220329E-01 1.964156133918E+00 -1.802606538006E+00 -3.459434173266E-03 7.918498337221E-01 -2.486174506608E-02 -2.345796621718E+00 -3.015916936070E+00 -3.380450146358E+00 5.057906423249E+00
 1.499643452480E+00 -1.300119566558E+01 3.344703738442E+00 -2.998428875808E-01 -2.364186765715E+00 -7.531085261278E-01 -1.711429081091E+00 -1.245940642777E+00 -1.336240366306E+00 -9.694175845646E-01 1.712383548677E+00 1.403096087741E-01 1.008870212222E+00 -1.074554872842E+00 2.154605393890E-01 -1.310765880072E-01 1.216178172946E+00 -5.048369857555E-01 -4.058841114319E-01 2.283799813548E+00 1.630120313311E-01 2.408448757552E+00 -1.485449461729E+00 1.394452447729E+00 1.553241120578E+00 1.224113904887E+00 -7.040973914217E-02 -2.577539331559E+00 -3.341323988847E+00 -3.852425434624E+00 -2.759788608593E+00 1.816956715265E+01
 -1.724535357968E+00 2.844152037057E+00 -1.336290633230E+00 1.148763914427E+00 5.437643884616E-01 8.378204845139E-01 -1.494339812946E+00 4.535558591363E-01 5.586419949901E-01 5.625006112793E-01 -5.740201378965E-01 3.815307396663E-01 -2.054684612337E+00 -8.464784949279E-01 -8.213141543130E-01 1.514836800580E+00 -9.161260285858E-01 -2.464266697608E-01 1.944381774342E-01 7.614022912170E-01 4.924200211888E-01 -2.919813228850E+00 5.452857102287E-01 -6.942316379900E-01 4.175977405710E-01 7.830029924957E-01 1.091093972360E+00 -2.798319069730E+00 -1.237319096480E+00 -5.061785212007E+00 2.728262551311E+00 6.874298710877E-01 7.969477947563E+00
 -2.044784297188E+01 7.431168434981E+00 3.671293024381E+00 3.194414812788E+00 -8.672883647279E-01 -3.547822846351E-02 -1.839615466572E+00 -1.627563746071E+00 -3.197568195412E-02 -1.006708524807E+00 1.542369152372E-01 -8.280906356048E-02 -5.658741877997E-03 1.284816433547E+00 9.623507689037E-01 -7.029180346680E-01 -1.116418906425E+00 -4.702152268482E-01 -6.772350479960E-01 2.614203349798E+00 -3.531727645589E-01 3.228567172715E-01 -1.962224427300E+00 -6.678759050649E-02 1.873140222020E+00 -3.672161788042E+00 -8.603313069224E-01 9.686015852006E-01 3.217316649802E-02 1.493312260234E-01 -1.363214141671E+00 -2.843819880017E+00 4.981843511282E-01 2.072043572559E+01
 4.338563647370E+00 -1.322406376133E+00 -2.416546671145E+00 -1.674596017019E+00 4.296048322702E+00 -1.909144495404E+00 -5.242698865581E-01 4.627765359264E+00 3.022460032304E+00 3.037455416122E+00 -1.599253697786E+00 9.278763880288E-02 -7.966424496925E-01 1.640053135641E+00 -2.979036370879E+00 -3.533650521183E+00 -1.614047328166E+00 -6.995494803957E+00 -6.171882805240E-02 -4.351199752119E-01 -1.040848027173E+00 -2.919405382762E+00 5.490101213893E-01 3.240446872389E-01 5.999110505351E-02 -1.531155834405E+01 -3.166709811913E+00 -2.641158758461E+00 6.209351124835E+00 4.860721340393E-01 -3.853016303553E+00 2.141369203761E+00 -1.663821801393E+00 5.420575674548E-01 2.891228896059E+01
 2.532931926905E+00 -7.012142630549E-01 -2.332331771754E+00 2.861285114010E-01 -7.622111456853E-01 -1.862212456253E+00 6.263056329569E-01 1.699566478752E+00 3.149446508854E-01 1.390778117050E+00 -2.014793368815E+00 6.359556676558E-01 -4.897806434776E-01 -5.631583907955E-01 1.691424007447E+00 -4.715227877421E-01 -1.465455900420E+00 -2.819179908849E+00 2.670023880400E-01 4.463953207589E-01 1.539743840348E+00 -2.215293658872E+00 -2.239460946096E+00 2.189589607734E+00 -1.515512109245E-01 -8.427857178948E+00 -4.566321944347E-01 -1.551814169873E+00 1.353572029803E+00 -7.558342802206E-01 -5.446250459982E-01 -3.828691530889E-01 2.744194003235E+00 -2.313575666960E+00 -2.047694728148E-02 1.557733951441E+01
 -1.170656466661E+00 -3.264328910933E-01 -4.940228018891E-01 4.292691215600E-01 -6.630190581923E-01 5.115705715664E-01 -8.487549264038E-01 5.299164546722E-01 -8.458245817584E-02 -1.642716702132E+00 -1.234548254174E+00 -9.878467700901E-01 1.770315358682E-01 -2.276888563382E-01 5.008483338456E-01 -8.254414375984E-01 -4.266571682238E-01 -3.057278695675E-01 -2.805210133196E+00 -1.120634363497E+00 1.074188341784E+00 2.027899545630E-01 4.395721280556E-01 -3.254650099017E-01 1.220346996689E+00 -9.260309380532E-02 8.313819406607E-01 -3.080131777287E-01 3.215724249053E-02 3.863877664855E-01 -1.261179263559E+00 2.300928925983E+00 1.877263545437E-01 1.686653618974E+00 2.084440222963E+00 5.924513038961E-01 1.306560278097E+01
 -1.120081652715E+00 -1.319476369735E-01 -1.126569915203E+00 1.472695318612E+00 -8.540348772356E-01 9.598593616010E-01 1.632836637818E+00 1.734586482755E-01 4.791433720047E-01 9.804064835916E-02 -4.173567011275E+00 -2.143802768632E+00 -6.404842231221E-01 1.027910240044E+00 -1.266058253122E+00 6.661630877709E-01 -2.316424770789E-01 -2.674377113476E-01 -8.898158066594E-01 -1.823452490961E+00 -1.366396083626E+00 2.408567916854E+00 -1.643249189325E+00 3.164350350286E-01 -6.252237073179E-01 -1.564681695217E-01 9.006216745276E-01 -3.509989586884E-01 -9.875517990402E-01 6.809454679640E-01 1.451022741464E+00 -5.000819025413E+00 -2.980908765072E+00 -2.906953781575E-01 3.996250630279E-01 3.440077675246E-01 1.131968042329E+01 3.116499668421E+01
 3.336951952813E-01 -1.852747121416E-01 2.592180113152E-01 5.487231019464E-01 1.803471150636E+00 -1.154241094772E+00 6.467832717167E-01 -6.318125247611E-01 -5.287797919974E-01 -6.431872065000E-01 -3.889352981675E+00 -5.023067171068E+00 -7.386049218982E-01 -1.333220626851E+00 -4.846140367459E-01 -2.825328409734E-01 -8.655604122276E-01 -1.985403491631E+00 2.203118469304E+00 8.038933758233E-01 -3.191164085638E+00 -1.054196729004E+00 -2.816146828527E-01 -7.736747556558E-01 -1.135166559211E+00 3.125049335678E-03 -1.682812634882E+00 -5.711072281696E-01 -1.520224106388E+00 8.369679211002E-01 -3.771822605238E-01 -1.721548148904E-01 -1.120702615404E+00 1.670291803955E+00 1.173499844530E+00 2.267216104293E-01 -1.944990924875E+00 3.155487096896E+00 1.173020311485E+01
 3.068127674892E+00 5.682955430782E-01 2.575590001151E-01 1.338270145793E+00 1.352520346953E+00 -2.819460102974E+00 -2.151124637071E+00 -2.195610435422E+00 -1.415421978769E+00 1.717363933068E+00 -9.068794708701E-01 -9.892720012128E-01 -6.212374457135E-01 -1.847464584650E+00 9.811744503170E-01 -5.315002975105E+00 -1.786944389354E+00 -6.676082692671E+00 -2.496329080463E+00 6.692601316906E+00 9.692770638493E+00 -8.154569336194E+00 5.522571983770E+00 -1.298373674605E+00 -2.607035101979E+00 5.917022546588E-02 1.863096750028E+00 -5.737936495268E-01 2.730163513601E+00 -5.212710013801E-01 -1.817815924755E+00 -1.962313495332E-01 2.999756785064E+00 2.928839825728E-01 3.105481866148E+00 2.179770631759E+00 -7.403435564758E+00 -1.537954049285E+01 2.181490537728E+00 2.154304143704E+01
 -3.456990902712E-01 -8.181278643081E-01 1.966227954229E+00 -2.139705112566E+00 1.514514131440E+00 1.001258675198E+00 7.649871495058E-01 -3.220631052142E+00 2.644312636960E-02 -2.776135512204E+00 2.426613365056E+00 5.186126115870E-01 1.863586858625E+00 2.300232989627E-02 2.631766513350E+00 1.218751383917E+00 2.259328129369E+00 4.098489449392E+00 4.776386447542E+00 -6.343919612831E+00 -1.145718323801E+01 1.667624180349E+00 -3.336599445363E-02 1.752208640299E+00 -2.188866174151E-01 -5.491928917178E-01 -4.533297830859E+00 1.067786859058E+00 -1.489833045719E+00 -1.016587337970E+00 9.384697798694E-01 4.025989206578E-01 1.381736755735E+00 9.028817174587E-02 -1.351075224205E+01 4.252447504222E-01 -1.157054344283E+01 -1.867859005787E+01 1.307353474636E+00 3.950384644660E+00 3.446510399887E+01
 2.130739573200E+00 -6.123913739250E-01 5.963705533630E-01 1.629051682507E+00 2.251316784994E+00 -3.527778875105E-01 -1.602614193335E+00 -9.006058664595E-01 -1.565772935193E+00 -3.281092642547E-01 -1.325198547854E+00 -1.655358786837E+00 1.568367548209E+00 1.620142473794E-01 2.275000701121E+00 -3.057257597580E+00 -3.778323373086E-02 -2.339814195117E+00 5.769340758458E+00 -1.398354019609E+01 -1.809768495526E+01 -6.032167841981E+00 5.437471063750E+00 -1.825109112007E+00 -9.665465716737E-01 -1.611836851900E+00 3.852138078025E-01 -1.802471941711E+00 1.156345929788E+00 5.223334418312E-01 -1.087521368725E+00 -2.489527985026E+00 5.812629176452E-01 1.258136212582E-02 2.315877077762E+00 7.623325369340E-01 1.462305401977E+00 2.398579691804E+00 3.231942131724E+00 -2.008686735754E+00 7.863621408692E+00 2.091775973972E+01
 -6.517091819055E-01 -1.978219542425E+00 5.275268806142E-01 5.522386930659E-01 2.188998924240E-01 -9.356901016481E-02 -1.965033128013E+00 -4.353886515597E-01 1.133072644989E+00 -1.542365237281E-01 2.043166082544E+00 1.867506594111E+00 -3.809075239082E+00 1.204314487826E-01 -1.002294182981E+00 -2.179246215063E+00 -1.322773257512E+00 -1.731010282127E+00 1.077817058592E-01 -4.285847149147E-01 -1.658570369548E+00 -1.912145981318E+00 -5.870061257212E-01 1.226939601190E+00 -1.767632693355E+00 1.319965758428E+00 -7.297061907194E-01 -1.141163024748E-01 -1.553363046267E+00 -1.265084958677E+00 -6.934268118709E-01 1.532304697177E+00 1.441524021445E+00 2.889028989528E+00 2.553033034739E+00 -6.313846692277E-01 3.863088468554E-01 -3.345179078274E-01 -1.213109661241E+00 2.294430106334E+00 -6.213390206866E-01 2.399172118401E+00 3.801525654880E+01
 9.250332516435E-01 4.585621906631E-01 4.604729825500E-02 -2.950411103643E-01 1.498239581839E-01 -2.228480188446E-01 3.975174439677E+00 -1.404316565853E+00 -4.107172188260E-01 -1.021877043665E+00 3.067939910873E-01 -1.537470281858E-01 -1.508727348978E+00 -1.623496125463E+00 2.874737407053E+00 1.299449075089E-02 -6.161726754637E-01 9.044411434231E-01 -1.189422839788E-01 2.175620375128E-01 3.937164766685E-01 8.123473256570E-01 2.292220292684E-01 1.280548531141E-01 8.144883369458E-01 -3.658331215938E-01 3.602296028696E-02 1.721850796737E-01 2.655760145961E-01 -1.502439474696E-01 6.905962585353E-01 -9.243483190539E-01 -7.462294183545E-01 -8.132494038963E-01 -1.589346355054E+00 4.793701430039E-02 -5.036619580677E-01 3.038752709269E-01 -2.292184064407E-02 -7.842428337990E-01 -7.848477423193E-02 -1.444974176129E+00 9.337289342094E-02 8.390229089529E+00
 -1.308802190688E+00 7.193740353069E-01 -7.599368523053E-01 -7.036476786574E-01 7.902116987382E-02 7.071520694506E-01 -2.211948777562E-01 1.606824700951E+00 -1.871655946707E-01 -6.444437160982E-01 1.256614029559E+00 2.670832873676E-01 3.096641527187E+00 -2.060639553543E-01 -2.454168833802E+00 -2.470061922899E-01 3.180583521288E-01 4.998555019078E-01 3.045335292197E-01 2.465476813783E-01 -3.402971492595E-01 1.182086469284E+00 1.296677197473E+00 -1.172848866465E+00 2.297022739620E+00 2.511438635518E-01 3.900037471307E-01 8.408819468863E-02 -1.436193111718E+00 -2.068036354379E-01 1.715132058556E+00 -7.523913629370E-01 -2.990252633724E-01 -2.200686933780E+00 -9.479959439558E-01 -1.095847156869E+00 3.575043881846E-01 3.706524416806E-01 -1.580742855925E-01 -2.128759351131E+00 -1.291533865576E+00 -4.407855093896E-01 5.632463402116E+00 1.506116873743E+00 1.401521236334E+01
 -5.896160740826E-01 2.165573591578E-01 -1.153073819950E+00 -2.469977011364E+00 2.819786948277E-01 2.683949728006E-01 3.322788022479E-01 1.081817766852E+00 -1.190680979251E+00 2.867311803193E+00 -4.774012291772E+00 -2.740533722077E+00 1.642803761099E-01 6.771949440200E-01 -4.581105981500E+00 -1.057611145485E+00 2.656120711424E+00 1.777369341787E-01 2.208019352284E-01 -2.245669484122E-01 2.093970707941E+00 2.147285133801E+00 4.720059245455E+00 -1.114161747412E+00 3.202048594642E-02 -9.756109494284E-01 4.455205592024E-01 -8.405719584313E-01 3.451924220440E+00 1.344980796358E-01 9.780799042951E-01 1.997651804916E+00 -1.251800562050E+00 -4.600354314199E+00 5.635717428313E+00 -9.528581676828E-01 3.047848929217E-01 -6.936981146172E-01 1.695206867274E-02 -1.988953507352E+00 -7.023830212414E+00 -4.182158438709E+00 -2.706621056775E+01 -2.801244922900E+00 -2.401058311360E+00 3.310912328837E+01
 -2.969700379545E+00 -3.296054346730E-01 1.033485088275E+00 -3.238410387463E-01 6.141257055768E-01 -5.508220435570E-01 -7.006516138019E+00 -1.496432657770E+01 -1.034116670740E+01 2.104956219972E+00 -2.270101571333E+00 8.315430555630E-01 6.336520973048E-01 4.507252898476E-01 7.856506853015E+00 2.756420521108E+00 5.875346828491E-01 5.814670116848E-01 -7.556365743259E-01 1.142749589427E+00 1.234403996709E+00 2.776499908139E+00 -6.125043653459E+00 1.874621755252E+00 2.786868959431E-01 3.648080588133E+00 -4.755072560936E-01 3.957532016923E+00 1.510324405316E+00 1.708753694929E+00 -1.721588734457E+00 2.870139367704E+00 -7.285721732119E-01 3.254632925302E+00 -1.957737223340E+00 -1.826503075038E+00 1.377706013280E-01 8.776233048705E-01 -7.889643524034E-01 -2.105183987493E+00 -6.017600440685E+00 -3.603802901244E+00 -2.049151644311E-02 -2.042200011263E+00 -4.475296053521E-02 2.963862701885E+00 2.502654211448E+01
 1.607911439306E-01 -1.581822910252E+00 4.860509752491E-02 -2.195642938113E+00 -1.804750315071E-01 4.194636863725E-01 -3.011262411557E+00 -5.076240968692E+00 -3.430352487939E+00 3.104591560902E+00 -4.077185620952E-01 1.585590609330E+00 -8.090959634809E+00 4.045281305250E+00 -2.461622500427E+01 -1.140915092812E+00 7.050001023318E-01 -6.089164463432E-01 -1.825332238474E-01 9.667709486819E-01 8.424438647608E-01 2.111021827557E+00 5.562487720290E-01 2.195836182989E+00 2.879636574763E-01 -2.586320298459E-01 9.034695174365E-02 5.074047693595E+00 5.354730244152E-01 -1.649519349588E+00 1.033774003656E+00 3.216536442531E+00 1.270708630786E+00 -2.949196599712E+00 2.889066255397E+00 -2.428117183978E+00 -8.613798940608E-01 2.085415078521E-01 -5.166140701088E-01 -7.792843715408E-01 -4.544974023204E+00 -4.999905819057E+00 -7.545685577549E-02 -1.066223544387E+00 8.278954798770E-01 9.500662159118E+00 -1.115907198861E+00 2.982192508917E+01
 -2.271010340550E+00 -1.210841161111E+00 3.745494323673E+00 -3.733613077586E+00 5.133383718859E+00 2.767193852389E-01 -3.417174742174E-01 1.296836622166E+00 -3.548815767238E-01 3.061661536182E-01 -1.915531660191E-01 1.314549252941E-01 -1.170767338447E+00 -7.227462059858E-01 2.670497774687E-01 -1.730875617520E-01 -4.441527264157E-01 2.305386473986E-01 7.558924128663E-02 -8.434958796858E-02 2.499063610418E-01 -6.460703035068E-01 -1.076511193445E+00 -3.925603380666E-01 -1.093568641681E+00 2.967265339510E-01 -9.084207739176E-01 -6.025247531969E-01 -3.829594749848E-03 5.905821772381E-01 -2.361239796960E-01 -3.011562049343E-01 2.582509446297E-01 -6.212179620109E-01 5.169287019328E-01 -2.392250170317E+00 -2.857927782827E-01 -7.339548996426E-01 2.461898155984E-01 4.935716637889E-01 -1.375500317620E-01 -2.343511981753E-01 -3.049645835710E-01 -1.155375745130E-01 -1.119836721035E-01 1.527137593256E+00 1.752440578586E+00 5.220426619631E-01 1.094815895770E+01
 -1.457175824973E+00 -9.610754209802E-01 1.899224440292E-01 5.239233156310E+00 -6.887959192684E+00 -1.735965473388E-01 5.788127391507E-01 -4.222849877348E-01 -8.951001463834E-01 6.684795727627E-01 -1.252037003189E+00 -1.334450239196E-01 1.390554380598E-01 -1.035149896812E+00 2.043114392175E-01 6.058865710182E-02 -3.193281547631E-01 1.507377460983E-01 1.085370565541E+00 -8.959412683284E-02 8.583979132909E-01 -8.005952419392E-01 -9.521208343801E-01 7.397444356978E-01 -1.521988356242E+00 -1.233785778682E-01 -2.253207110652E+00 3.359032687988E-01 -2.952342743632E-01 1.289462815382E+00 -5.260980940477E-01 7.428376517479E-01 2.352288208217E-01 9.742926101304E-01 -8.027394643494E+00 1.069080497361E+01 4.373051134898E-02 -9.406594535090E-01 2.718613030879E-01 2.279819234670E-01 1.595195505401E+00 -9.149377876376E-03 -4.934320895033E-01 7.432407419529E-01 -1.231703900486E-01 -3.640328966662E-01 5.616342592241E-01 -3.436360630948E-01 -5.068621997465E+00 1.896577893825E+01
 1.839077824868E-01 1.039555471701E+00 -2.759626680058E+00 -2.230969391206E-01 -6.792208717593E-01 -6.513155390164E-01 2.869049315491E-02 1.029521261088E+00 -1.077018548128E+00 -2.203333234543E-01 -9.679293607871E-03 -1.006542624413E+00 -1.127921367065E+00 5.107572105704E-01 6.656559626328E-02 6.373655622694E-01 -4.454026367228E-01 -1.870491850730E+00 -6.440236139244E-01 1.556386745526E-01 1.433311170826E-01 -1.754284493526E-01 1.328053896519E-01 -8.456025722178E-01 -1.436998404342E-01 -4.616223993933E-01 -7.129942868110E+00 -5.398151612398E-01 1.348509306633E-01 1.788826182176E-01 3.165892206890E-01 -7.964999452256E-01 -1.736201308655E-01 4.005630362947E-01 1.009234734298E+01 -1.065520353944E+01 -4.200927324011E-01 7.753309107390E-01 6.943526530667E-01 1.123800961033E+00 -2.751347272392E+00 1.188441083358E+00 1.253662682368E+00 5.438900444769E-02 -3.450843262604E-01 -3.640264335592E-01 2.247468331834E-01 -1.101771472169E+00 8.542449511322E-01 -8.873684622183E+00 2.475766249480E+01
 5.063322813417E-01 -1.206242974459E+00 5.202579971151E-01 3.441160353157E-01 -1.763842986761E-01 -1.205878055734E+00 8.865457451580E-01 -1.444643956747E+00 -9.145602894547E-02 1.492268747006E+00 -8.312782882333E-01 -1.770405588065E-02 4.524189016284E-01 8.163022465255E-01 -6.142270922863E-02 -1.984273060710E+00 4.158728075063E-01 -1.930010621466E+00 -1.811299905580E+00 -2.687827454850E+00 -3.256482031326E+00 5.660438663323E-01 -1.554165338721E+00 2.059515968668E+00 -1.142087819146E+00 -8.865626843002E-01 -5.817533235989E-02 -1.153247629216E+00 8.995004380710E-01 1.128723007436E+00 -1.637579191472E+00 9.202824142931E-01 -1.636238783019E+00 1.258315495401E+00 1.045471410588E+00 -2.071845324789E-01 -4.439503430173E-01 9.589318597280E-02 6.491432862021E-01 7.211919747662E-01 2.573362317899E+00 2.817631371972E+00 -2.323554289118E+00 -1.402550496114E+00 -5.024900364320E+00 1.753674502747E-01 -6.930131753463E-01 1.575477212105E-01 -1.030235776284E-01 -1.484530170998E-01 -5.468628490618E-02 5.285482139039E+00
 7.182524200643E-01 -6.025288871871E-01 -5.850038467159E-01 -1.030726606811E+00 9.730949410719E-01 -6.495001634899E-01 -1.479128908856E-01 -2.816462923389E+00 -9.285957262710E-02 -4.608378676644E-01 1.745435396205E+00 1.543132615124E+00 -6.623833316855E-01 2.518492823999E-01 -1.443377384310E+00 1.763763032198E+00 -5.239169351290E-01 -2.671519484294E-01 -1.804397869089E+00 -4.033669803578E+00 -3.279021075628E+00 1.311880758746E+00 -4.225034074960E+00 1.938808340784E+00 1.065438437448E+00 -9.845269661876E-01 -1.001455424630E+00 -3.775301548154E-01 -1.265425142369E+00 -9.554816272219E-01 -2.397130639586E-01 -6.199418092059E-01 7.022340795080E-02 -2.157846393525E-01 3.411747414886E-01 2.000058082322E+00 -7.347216319500E-01 3.308711376807E-01 1.243677358436E+00 -5.835313630389E-01 3.414400603982E+00 1.979577373785E+00 1.260434332515E+00 -2.313746422332E+00 -2.745585234852E+00 -3.525441336266E+00 2.545737755320E+00 -1.333269086245E+00 1.299495209544E-01 -5.389563151697E-01 3.013680398488E-01 1.826633933075E+00 1.395264979568E+01
 3.809421881646E-01 -4.381143553383E-01 1.364078360534E+00 9.397311025173E-01 -1.615252736636E+00 4.691397603198E-01 2.233744213984E+00 -1.757190229517E+00 -6.007567007530E-02 9.205136416575E-02 -4.050453516623E-01 -8.462227000998E-01 6.965948017813E-01 4.415082065607E-01 -2.047909764022E+00 -2.475941301472E+00 1.707393644451E+00 8.399375541573E-01 -1.794679554060E+00 -2.319759083725E+00 -3.388425876988E+00 1.378102868401E+00 2.551866760226E+00 5.628781139510E-01 -3.262787053029E+00 -1.870888919711E-02 -3.694379765657E-01 -1.317372340032E+00 1.596030251419E+00 -4.050881764391E-02 -6.335294630083E-01 1.611657923157E-01 -2.706224604555E+00 1.589720537030E+00 -1.121240279963E+00 -3.156797910474E+00 -7.786636109778E-01 -2.950893268343E-03 5.123624821561E-01 4.824614251377E-02 5.247253152143E+00 2.359236481327E+00 -5.969554354784E+00 -2.649022254743E+00 -7.233274354495E+00 4.365119182641E+00 -3.015155149996E+00 1.096698910406E+00 -9.603009431024E-01 -1.327422959315E+00 8.763209380553E-01 5.567631264878E+00 4.264285785580E+00 1.161109789698E+01