#BIOSYM hessian 1
@Type: Hessian Update
@Units
 distance: 	A
 energy: 	Kcal/Mol
#header
@natom 19

#label
L1      L2      L3      L4      L5      L6      L7      L8      L9      L10     L11     L12     L13     L14     L15     L16     L17     L18     L19

#element
Li Li Li Li Li Li Li Li Li Li Li Li Li Li Li Li Li Li Li

#matrix
57
 2.183154474456E+03
 8.374787048727E+01 3.091185475209E+03
 2.137398653952E+01 5.059369728217E+02 2.529793979855E+03
 1.658232479593E+02 -1.880307414382E+02 -3.361050381695E+01 1.775186253247E+03
 -5.763900513075E+01 -8.060320166450E+02 -4.698635226150E+02 1.153713920743E+02 2.998238410836E+03
 -2.523897136225E+00 2.499186427862E+01 1.215131404086E+01 1.199335570513E+01 -2.296300253503E+01 2.242791965974E+03
 -2.043058372532E+01 5.982982565378E+01 2.457746452574E+01 5.821899274231E+01 -4.748382243969E+01 -1.180140250625E+00 2.235113745703E+03
 3.033169815303E+01 4.836260207356E+02 2.800985908916E+02 -5.740854184706E+01 -4.530208287012E+02 1.342414299151E+01 2.681243839552E+01 2.511536297187E+03
 2.834689896809E+01 -6.274733462281E+02 -3.347736395766E+02 -1.111256255971E+02 5.645076065437E+02 -1.068703950938E+01 -8.724599283816E+00 -3.329149206122E+02 2.581193818199E+03
 -4.800903872043E+01 1.289169757733E+02 5.038111647052E+01 1.420004477910E+02 -1.023855855100E+02 -4.454127978425E-01 -1.537504297965E+01 5.751022717913E+01 -1.193130479564E+01 2.204583532414E+03
 5.690933866676E+00 -1.076389492483E+03 -5.931342570056E+02 -6.855216635943E+01 9.820072933447E+02 -2.066289714583E+01 -3.265315618790E+01 -5.820609289486E+02 6.430698994145E+02 -5.978742054014E+01 3.418178172200E+03
 -1.141727667632E+01 -4.665059962550E+02 -2.628445620424E+02 7.775840236108E+00 4.305203700357E+02 -1.059615422567E+01 -1.934127381283E+01 -2.560993079178E+02 2.973401303513E+02 -3.882667425868E+01 5.328338643861E+02 2.478859757689E+03
 -5.697944616016E+01 3.654547819828E+02 1.783470673042E+02 1.726083603951E+02 -3.140956232894E+02 8.453506051692E-01 -9.688241623137E+00 1.825222932957E+02 -1.442838068807E+02 -3.082441684108E+01 -3.096777560934E+02 -1.527288718151E+02 2.272024846520E+03
 6.076812064830E+01 -1.705248468498E+01 1.684007419306E+01 -1.710496847988E+02 -4.365767270046E+00 4.108545309701E+00 2.379563803356E+01 6.649131643503E+00 -7.284777591013E+01 5.487907146289E+01 -8.437597127188E+01 -2.337626079264E+01 8.091045616789E+01 2.182059250863E+03
 -8.282803771622E+01 -7.710894095921E+01 -7.750273856924E+01 2.220579903532E+02 9.925472244468E+01 -1.029364448874E+01 -3.406050390851E+01 -6.435870024316E+01 1.583432497588E+02 -8.147000570335E+01 2.213225827316E+02 8.094234017218E+01 -1.349536245372E+02 7.294557507038E+01 2.165502085244E+03
 5.076186018657E+01 -3.450901303346E+00 1.926040926428E+01 -1.374347282187E+02 -1.477263435895E+01 5.824509057454E+00 1.892471781448E+01 1.211717876586E+01 -6.608811661687E+01 4.698231019323E+01 -7.891407312017E+01 -2.420701539079E+01 6.683564754503E+01 -4.846709172120E+01 5.556492395434E+01 2.203939098155E+03
 -5.600440410230E+00 1.530174281406E+02 8.222425967318E+01 2.331008178351E+01 -1.380633897906E+02 2.650121180204E+00 2.684054152713E+00 8.151188180435E+01 -8.482258479179E+01 4.104940378920E+00 -1.591314186475E+02 -7.321362147252E+01 3.713166305332E+01 1.652762398814E+01 -3.704114067074E+01 1.502869532424E+01 2.261952027196E+03
 3.812166652688E+01 -1.131755357801E+02 -4.654244207756E+01 -1.097683075069E+02 9.027992793961E+01 1.698487834729E+00 1.092843860055E+01 -5.101782864017E+01 1.693317006313E+01 2.848886519730E+01 6.187184874681E+01 3.670653497055E+01 1.847161921236E+01 -4.447773413855E+01 6.454932369559E+01 -3.603116083705E+01 -5.153793569952E+00 2.220163598130E+03
 -3.462931204738E+00 -1.825597439402E+02 -1.024187303284E+02 1.862637539209E-01 1.681598049228E+02 -4.095580436040E+00 -7.153258062986E+00 -9.996437139741E+01 1.149760270263E+02 -1.427574490571E+01 2.067754944459E+02 9.261148859426E+01 -5.831509009204E+01 -1.009454785821E+01 3.284601123387E+01 -1.028118087275E+01 -2.833168816435E+01 1.359588335605E+01 2.276868127085E+03
 -7.137914903988E+01 4.290793364895E+02 2.067397022382E+02 2.197591639641E+02 -3.684681086976E+02 2.671240046336E+00 -1.436872069181E+01 2.137832452867E+02 -1.620706338480E+02 -3.986734117573E+01 -3.527875970256E+02 -1.763244218314E+02 2.662369711937E+01 9.910690312470E+01 -1.665673285838E+02 8.457225557208E+01 4.183066457043E+01 2.669288421018E+01 -6.725094596761E+01 2.262665200775E+03
 1.902561957695E+02 7.800514039893E+02 5.123614770879E+02 -4.851490859781E+02 -7.779450137988E+02 3.345884143545E+01 9.899597725496E+01 4.740492503348E+02 -7.294998123811E+02 2.231212643040E+02 -1.176447840319E+03 -4.867090647811E+02 4.916141538861E+02 -1.231916705292E+02 5.575433526458E+01 -8.851885523691E+01 1.755767321802E+02 -1.869613610617E+02 -1.922149453919E+02 5.874245874262E+02 2.763743407291E+03
 1.145265365373E+00 -7.974960878856E+00 -4.291273802761E+00 -1.235838882442E+00 6.310402798291E+00 9.708316892971E-01 -4.230776407822E-01 -3.683092751444E+00 3.877038124884E+00 8.040865043007E-01 8.511827364933E+00 3.703187294360E+00 -2.625880167174E+00 -1.739773702390E+00 1.353515922046E+00 -8.508073993339E-02 -1.019375775638E+00 4.881562577189E-01 1.406050403133E+00 -1.598458555849E+00 -9.321490813073E+00 2.241573492933E+03
 -4.077611219335E+01 2.505194734817E+02 1.207640397665E+02 1.278775254407E+02 -2.159598531015E+02 2.547767206867E+00 -8.579911630647E+00 1.253547250378E+02 -9.530561955849E+01 -2.224448390644E+01 -2.060328071752E+02 -1.031239645465E+02 1.514328101750E+01 5.695054458027E+01 -9.759103028686E+01 4.987917806212E+01 2.454037086793E+01 1.566821567258E+01 -3.935930591079E+01 1.350487022415E+01 3.425663972979E+02 -3.436676791913E-01 2.249700519800E+03
 -4.528334559246E+00 5.506606580463E+01 2.801499823786E+01 1.851309134746E+01 -4.964815062803E+01 2.134759439090E+00 -8.564107457191E-01 2.912176562214E+01 -2.627482419966E+01 -5.304046982820E-01 -5.082636785996E+01 -2.459412814473E+01 7.338460557387E+00 8.233799890647E+00 -1.822573673387E+01 9.138324378896E+00 6.561863513095E+00 1.147035127842E+00 -9.490880671901E+00 9.557434553898E+00 6.920399147420E+01 6.232507000344E-01 6.452898717104E+00 2.243924727151E+03
 -4.524203779313E+01 -1.882555686660E+02 -1.231666002731E+02 1.139724489995E+02 1.878406361187E+02 -8.571102595412E+00 -2.329563933521E+01 -1.144069898106E+02 1.748143242587E+02 -5.335039147800E+01 2.819097583560E+02 1.169363568491E+02 -1.167134371750E+02 2.913309340031E+01 -1.188926236432E+01 2.013254353196E+01 -4.206376151029E+01 4.417096263432E+01 4.618374262085E+01 -1.401435178784E+02 -1.280207961709E+02 1.866777807222E+00 -8.205073648409E+01 -1.703525076971E+01 2.272365846597E+03
 1.018166908590E+01 1.862654126981E+02 1.070913538266E+02 -1.703624268505E+01 -1.742090785230E+02 5.448161222092E+00 9.493853571380E+00 1.039882914281E+02 -1.259392422074E+02 2.085641564684E+01 -2.210131874209E+02 -9.772603631006E+01 6.747869284367E+01 3.953287063643E+00 -2.707137663814E+01 6.336491727995E+00 3.085311561767E+01 -1.820851860169E+01 -3.812935458202E+01 7.942031142685E+01 1.856363961338E+02 -1.114445554200E+00 4.682309395974E+01 1.130128594331E+01 -4.492148907087E+01 2.280856475069E+03
 -2.860585142637E+01 -9.749276273677E+02 -5.514398177798E+02 3.005874092586E+01 9.011455956589E+02 -2.225464526443E+01 -4.246245403465E+01 -5.363743387428E+02 6.280198155780E+02 -8.545253926912E+01 1.121973658376E+03 4.999710932298E+02 -3.263013768251E+02 -4.438289630466E+01 1.634027746842E+02 -4.659532779316E+01 -1.545375693533E+02 8.045488244408E+01 1.946078535312E+02 -3.768756977764E+02 -1.008701041540E+03 8.038003950166E+00 -2.202047119620E+02 -5.191981866035E+01 2.422995217906E+02 -2.047261501523E+02 3.290766007316E+03
 2.259539047093E+01 -3.656733666943E+02 -1.924454896958E+02 -8.193119664704E+01 3.270209941970E+02 -5.847207277765E+00 -2.612247288260E+00 -1.924454910084E+02 1.899875506346E+02 -1.376173232047E+00 3.643438872605E+02 1.700724036571E+02 -7.536787679298E+01 -4.820484966699E+01 9.933705905613E+01 -4.332791492294E+01 -4.751383869086E+01 5.262351189469E+00 6.565469383807E+01 -8.391047720097E+01 -4.356895477081E+02 2.026742705845E+00 -4.951799773801E+01 -1.446021037960E+01 1.043881243244E+02 -7.267033349194E+01 3.597164062799E+02 2.346141269337E+03
 -3.192272061582E+01 -1.356266374729E+02 -8.866076547181E+01 8.160023189751E+01 1.347563369448E+02 -5.518068224567E+00 -1.687734232199E+01 -8.204964976408E+01 1.253834215035E+02 -3.768185441540E+01 2.029256320653E+02 8.408636741959E+01 -8.423169902877E+01 2.031033863665E+01 -8.692020096099E+00 1.477050234375E+01 -3.020290261872E+01 3.181706153226E+01 3.319023099949E+01 -1.003219139754E+02 -9.263992749076E+01 1.729529930307E+00 -5.839476845647E+01 -1.168785332811E+01 2.259122963082E+01 -3.205489929822E+01 1.743727130648E+02 7.478707513477E+01 2.257261492738E+03
 7.694217731521E+01 9.134594162948E+02 5.378560546188E+02 -1.654761679314E+02 -8.615955297495E+02 2.590841127943E+01 5.904506029792E+01 5.161240371724E+02 -6.562186442871E+02 1.265076117944E+02 -1.134155648570E+03 -4.943000215410E+02 3.741351925461E+02 -5.987802008933E+00 -9.776254021627E+01 6.445799691836E+00 1.602854809904E+02 -1.118082696497E+02 -1.932376117940E+02 4.384475823022E+02 8.604156108657E+02 -8.154050117011E+00 2.561940560233E+02 5.722583186697E+01 -2.075325689757E+02 1.984965484173E+02 -1.033945133179E+03 -3.812285579973E+02 -1.493643240016E+02 3.219540892400E+03
 3.391054644052E+01 8.661760082647E+02 4.934277392446E+02 -4.940628766407E+01 -8.036922886133E+02 2.087429170915E+01 4.084285938843E+01 4.789225436819E+02 -5.692998874587E+02 8.384267923597E+01 -1.010476343736E+03 -4.484987570087E+02 3.010383717198E+02 3.135841381601E+01 -1.361774046667E+02 3.541612010206E+01 1.398806816226E+02 -7.744846998776E+01 -1.747140499684E+02 3.490826527752E+02 8.821496735376E+02 -7.079735781566E+00 2.041127142399E+02 4.778134313245E+01 -2.121277311560E+02 1.831115032760E+02 -9.411117022247E+02 -3.270048530223E+02 -1.525673233525E+02 9.203025379382E+02 3.083403410172E+03
 1.592132155657E+00 -2.147766495223E+02 -1.176908308515E+02 -1.787909788948E+01 1.965406881642E+02 -5.381275771512E+00 -5.560745512997E+00 -1.164434003548E+02 1.269211400136E+02 -1.179745672328E+01 2.320859313265E+02 1.056666581700E+02 -5.880651476213E+01 -1.718047334736E+01 4.659766044368E+01 -1.778135079936E+01 -3.137733645003E+01 1.094403975828E+01 4.101457326070E+01 -6.850695847284E+01 -2.371290651079E+02 8.203463556475E-01 -4.076684917589E+01 -1.110702702376E+01 5.726575187911E+01 -4.452335170342E+01 2.223454336563E+02 7.191131587810E+01 4.072425630829E+01 -2.262511421929E+02 -2.007051495605E+02 2.287641284009E+03
 -6.428384178405E+01 -4.416977807233E+02 -2.717728885513E+02 1.557857603589E+02 4.255330854545E+02 -1.454805225620E+01 -3.937704074141E+01 -2.566634862704E+02 3.543502257734E+02 -8.609653808295E+01 5.943303954329E+02 2.532058763830E+02 -2.191474324785E+02 2.854094567432E+01 1.632648125140E+01 1.790670390651E+01 -8.599844333663E+01 7.432089509740E+01 9.940676519687E+01 -2.587006105478E+02 -3.694248306943E+02 4.756061301722E+00 -1.507557221127E+02 -3.173446768998E+01 8.936798002483E+01 -9.932456460962E+01 5.276636969570E+02 2.084179678698E+02 6.459770962397E+01 -4.785880565867E+02 -4.661221181279E+02 1.187275382580E+02 2.463731702990E+03
 2.369151914622E+01 1.652200485254E+02 1.017335640147E+02 -5.872362538576E+01 -1.586892398848E+02 4.779761847692E+00 1.496718747961E+01 9.570589566099E+01 -1.324434675429E+02 3.173796918261E+01 -2.227258867084E+02 -9.473207899960E+01 8.262914115647E+01 -1.029870102690E+01 -5.563914152199E+00 -7.251790270844E+00 3.217066916704E+01 -2.805761139969E+01 -3.717859202259E+01 9.669984994868E+01 1.380025872767E+02 -2.194831639061E+00 5.598584628932E+01 1.130734537208E+01 -3.316361800658E+01 3.687330863047E+01 -1.975346988010E+02 -7.783349565671E+01 -2.421132912169E+01 1.789298888206E+02 1.743554087123E+02 -4.397114768365E+01 -8.348715836513E+01 2.272372616274E+03
 -5.238716855657E+01 2.921895602146E+02 1.392200504890E+02 1.597874456835E+02 -2.495587033092E+02 1.342861872106E+00 -1.117985910598E+01 1.445259435679E+02 -1.053098204978E+02 -3.067117413144E+01 -2.341364405525E+02 -1.181525292845E+02 1.314365634622E+01 7.108187423538E+01 -1.174593655843E+02 6.027355417384E+01 2.733467249013E+01 2.084550114254E+01 -4.498422305948E+01 8.504952581206E+00 4.062858415149E+02 -1.104903577489E+00 5.428036836330E+00 5.785896736253E+00 -9.684203704081E+01 5.354412457361E+01 -2.529320254606E+02 -5.383645031343E+01 -6.936483946883E+01 2.978169149222E+02 2.348510000771E+02 -4.525271289045E+01 -1.773590947908E+02 6.635153764776E+01 2.242117396317E+03
 -4.256166010079E+01 -4.272182382548E+02 -2.543163764136E+02 9.531655561940E+01 4.052480243823E+02 -1.281732096756E+01 -3.011914507088E+01 -2.431792274043E+02 3.157774643939E+02 -6.526601353092E+01 5.412529483261E+02 2.345588385430E+02 -1.838836309397E+02 9.041975592568E+00 3.852202660528E+01 1.817132250212E+00 -7.698983490822E+01 5.703886260421E+01 9.180031914893E+01 -2.162190281951E+02 -3.913505421750E+02 3.870064349387E+00 -1.263644431017E+02 -2.791959362299E+01 9.452911685895E+01 -9.372500331240E+01 4.901254437960E+02 1.840828187909E+02 6.802141742049E+01 -4.590331751250E+02 -4.354564332002E+02 1.081859071242E+02 2.217583508800E+02 -8.286207932388E+01 -1.472391193829E+02 2.455512930137E+03
 2.261205986377E+01 2.573607967730E+02 1.520738371407E+02 -5.007755783606E+01 -2.428415322729E+02 6.998345426359E+00 1.723071338030E+01 1.455378465013E+02 -1.863852420427E+02 3.642021033132E+01 -3.217154943378E+02 -1.398744900624E+02 1.074036766179E+02 -2.547689884855E+00 -2.592256265549E+01 6.074154346202E-01 4.551884227220E+01 -3.250506803929E+01 -5.469179858169E+01 1.254564530102E+02 2.403445717387E+02 -2.574429836702E+00 7.307619320437E+01 1.596579106174E+01 -5.785366744691E+01 5.590291186068E+01 -2.925666334147E+02 -1.083487229756E+02 -4.178890853226E+01 2.759134524720E+02 2.601773769091E+02 -6.388104322555E+01 -1.345467855232E+02 5.045847836540E+01 8.531808476710E+01 -1.292690466910E+02 2.318706435065E+03
 4.073404266865E+01 -9.229576429513E+01 -3.364608822206E+01 -1.174143350698E+02 7.068180035493E+01 1.701933969142E+00 1.300859543326E+01 -3.920993332809E+01 3.778349759124E-01 3.202093701885E+01 3.346062451475E+01 2.475240315894E+01 2.941011905443E+01 -4.537814147405E+01 6.425568434065E+01 -3.739559736415E+01 -1.106057714277E+00 -2.441133415783E+01 8.918123920855E+00 3.874190113457E+01 -1.695720433453E+02 -1.598128843188E-01 2.231718268701E+01 2.060604679313E+00 4.019293462383E+01 -1.380887012115E+01 5.541291740556E+01 -4.404131931860E+00 2.869590647241E+01 -8.928788287766E+01 -5.546089144235E+01 5.803367017321E+00 6.364779462389E+01 -2.380082818743E+01 2.916090659258E+01 4.664495686073E+01 -2.601443313742E+01 2.213481314280E+03
 -2.074493283062E+01 -2.041779461637E+01 -1.979983509758E+01 5.415338943353E+01 2.622869686325E+01 -3.221342309873E+00 -8.194912423343E+00 -1.692132232295E+01 3.995518251162E+01 -2.060978137049E+01 5.566062981745E+01 2.062345382123E+01 -3.299821185288E+01 1.822975590905E+01 -1.772507419693E+01 1.303103492228E+01 -9.330790557522E+00 1.572401652882E+01 8.369967510893E+00 -4.156125928486E+01 1.199292610409E+01 -6.878238466820E-02 -2.471301384465E+01 -5.115476654633E+00 -2.291565439959E+00 -7.238279968032E+00 4.157383327731E+01 2.507555463812E+01 -1.919440484235E+00 -2.566996516198E+01 -3.487952469396E+01 1.222104428013E+01 4.694144380031E+00 -1.369469010601E+00 -2.923155647323E+01 1.029296762281E+01 -6.681720193628E+00 1.587800312749E+01 2.236937234548E+03
 1.111808363591E+01 -5.800166176571E+01 -2.746201320841E+01 -3.286742480042E+01 4.908401586290E+01 1.641687834027E-01 2.281000596469E+00 -2.837734297223E+01 2.015168801153E+01 6.832799422026E+00 4.586111532938E+01 2.320087107808E+01 -2.286899667018E+00 -1.481300186034E+01 2.356534395697E+01 -1.202885734430E+01 -5.268325552682E+00 -4.363583344663E+00 8.817535772481E+00 -7.721216167788E-01 -8.140943641915E+01 4.530955471455E-01 -3.310560883865E-01 -7.367792560867E-01 1.927265358973E+01 -1.040101872000E+01 4.978241040319E+01 1.015951995642E+01 1.394062152316E+01 -5.896444452686E+01 -4.621869356299E+01 8.545355220318E+00 3.543730692890E+01 -1.340774755785E+01 3.676148135838E-01 2.917822267029E+01 -1.699340488206E+01 -6.176601622103E+00 5.714483531934E+00 2.240736510669E+03
 -1.177938160040E+01 3.007978745395E+02 1.613221485269E+02 4.784841425349E+01 -2.711163788315E+02 5.097539572432E+00 5.001496897093E+00 1.600143732842E+02 -1.657243253840E+02 7.348963063398E+00 -3.115981533002E+02 -1.435371578078E+02 7.200913073623E+01 3.322036117121E+01 -7.360584374910E+01 3.006857210254E+01 4.125827691469E+01 -9.601636635262E+00 -5.553230633643E+01 8.094925842119E+01 3.463967214144E+02 -2.019120702179E+00 4.747057266689E+01 1.273921540031E+01 -8.296534888226E+01 6.053589299327E+01 -3.030429264856E+02 -9.273261125040E+01 -5.958392531172E+01 3.149307661123E+02 2.743938260154E+02 -6.138734553765E+01 -1.692978967752E+02 6.335118906524E+01 5.282388302312E+01 -1.513414865890E+02 8.946074794502E+01 -1.614555143675E+00 -1.851742799923E+01 -1.018229285623E+01 2.321489266048E+03
 -2.376419945029E+01 1.949316672752E+02 9.757820051868E+01 7.613825387600E+01 -1.703869317137E+02 2.101105211302E+00 -3.207966230345E+00 9.947069574448E+01 -8.533734676044E+01 -1.008346682833E+01 -1.745787123893E+02 -8.456818930618E+01 2.389416872330E+01 3.680216109411E+01 -6.612487784218E+01 3.200811697605E+01 2.167799367539E+01 5.842796278297E+00 -3.243579856397E+01 2.464633726147E+01 2.522475870267E+02 -8.258934025332E-01 1.475346531421E+01 5.834510526103E+00 -6.030845242776E+01 3.724021716328E+01 -1.798817774251E+02 -4.575255935819E+01 -4.315588167000E+01 2.009048875742E+02 1.652379966630E+02 -3.422579962239E+01 -1.147977925388E+02 4.286422197037E+01 1.436594526914E+01 -9.819722678473E+01 5.730247615222E+01 1.114869674397E+01 -1.659441476266E+01 -2.476329492469E+00 4.212636634912E+01 2.257632790758E+03
 -8.991405151852E+01 -1.617770157125E+02 -1.274617303826E+02 2.380582890241E+02 1.788975831763E+02 -1.234023845420E+01 -3.972446125379E+01 -1.120713035869E+02 2.193118156126E+02 -9.307502403842E+01 3.269285022556E+02 1.268456567580E+02 -1.701996511975E+02 7.343151466128E+01 -6.674446576670E+01 5.538797285554E+01 -5.194599235380E+01 7.516522995406E+01 5.078443341436E+01 -2.074259585554E+02 -2.364518830962E+01 2.341418490205E+00 -1.212635103830E+02 -2.324238138873E+01 7.139537427571E+00 -4.533292190919E+01 2.594798307000E+02 1.347364234590E+02 5.137349882757E+00 -1.884584834259E+02 -2.216001587591E+02 6.737891786566E+01 6.070145302634E+01 -2.229363819747E+01 -1.452528347007E+02 8.102099479180E+01 -5.157413248037E+01 7.264057546198E+01 -1.559841124566E+01 2.915022344769E+01 -1.029027016509E+02 -8.480059225215E+01 2.191183285150E+03
 5.085714746172E+01 -3.261593358980E+02 -1.584602571679E+02 -1.585385941767E+02 2.814615327708E+02 -2.725686696276E+00 9.826756217883E+00 -1.635403185982E+02 1.275799379409E+02 2.707718860208E+01 2.732291837000E+02 1.356692752192E+02 -2.423163375583E+01 -7.208738976553E+01 1.233940196809E+02 -6.222335019743E+01 -3.278440053901E+01 -1.811093251214E+01 5.181663044268E+01 -2.207182892154E+01 -4.412251839793E+02 1.019100199321E+00 -1.367921054710E+01 -8.130247481439E+00 1.054328745072E+02 -6.095320304365E+01 2.895949655811E+02 6.667672397649E+01 7.533712421892E+01 -3.339660857160E+02 -2.678146112928E+02 5.346763717928E+01 1.955726028117E+02 -7.294262616274E+01 -1.034349220819E+01 1.643948308125E+02 -9.540460552578E+01 -2.705949768853E+01 3.096425211871E+01 1.285742657186E+00 -6.349665274366E+01 -2.084313066273E+01 1.544216551694E+02 2.261743206156E+03
 -4.237900398517E+01 1.763415498077E+02 7.913980669643E+01 1.280259462991E+02 -1.474461748695E+02 6.571482520504E-01 -1.143857881462E+01 8.461665655508E+01 -4.844432696757E+01 -2.827295814061E+01 -1.220203855862E+02 -6.545776355295E+01 -8.447990175804E+00 5.305041715517E+01 -8.416055442225E+01 4.557920692861E+01 1.300473240784E+01 2.116656741952E+01 -2.470165846867E+01 -1.397893529096E+01 2.645443122647E+02 9.316756313376E-02 -7.349528263225E+00 2.398126979547E+00 -6.322858965483E+01 3.122678474299E+01 -1.411046553314E+02 -2.272976509066E+01 -4.494725133900E+01 1.776331210097E+02 1.330647325577E+02 -2.392961616142E+01 -1.104263439600E+02 4.098500609924E+01 -1.294349353765E+01 -8.903623878975E+01 5.089314281727E+01 2.600252669601E+01 -2.120841294480E+01 3.223233445166E+00 2.486454295060E+01 1.496659173377E+00 -1.005865937194E+02 7.542900462602E+00 2.223284504106E+03
 7.671607562869E+00 5.454646073186E+00 6.351111749848E+00 -2.132141980143E+01 -7.479412221228E+00 6.236276641765E-01 3.277625882528E+00 4.949546730163E+00 -1.382245128036E+01 7.377724366051E+00 -1.911079239081E+01 -6.752014137189E+00 1.253910070666E+01 -6.860360700705E+00 7.755624594403E+00 -5.648895445630E+00 3.232209310676E+00 -6.118746829573E+00 -2.749114032265E+00 1.511141476503E+01 -7.360687265310E+00 -3.105267592317E-01 8.681416958694E+00 1.370042895723E+00 1.729671682851E+00 2.050049146521E+00 -1.361010945295E+01 -8.708904741280E+00 1.145053562215E+00 7.266292883059E+00 1.115046253787E+01 -3.801413076752E+00 -5.848890107915E-01 2.875329035911E-01 1.070820904074E+01 -2.676905870821E+00 1.963529109143E+00 -6.013079551797E+00 1.952400511981E+00 -2.220667093635E+00 6.438642033751E+00 5.916416256078E+00 7.059559904440E+00 -1.109874101570E+01 7.596351292867E+00 2.240112199328E+03
 2.640489184390E+01 1.419712790950E+02 8.983004329835E+01 -6.611610778897E+01 -1.386723200325E+02 5.115400493967E+00 1.494601912694E+01 8.400547509897E+01 -1.217438708609E+02 3.296138148483E+01 -2.007506837054E+02 -8.439142150964E+01 7.852692146710E+01 -1.461278162769E+01 1.297582324424E+00 -1.019954013982E+01 2.944103549854E+01 -2.817500606130E+01 -3.321547619369E+01 9.304448089703E+01 1.088682203724E+02 -1.693571177942E+00 5.415650581323E+01 1.107081672788E+01 -2.640268751279E+01 3.263796519837E+01 -1.754692618136E+02 -7.209287580694E+01 -1.914667168606E+01 1.549628044697E+02 1.542954204381E+02 -4.014488603522E+01 -6.983047606465E+01 2.618656730037E+01 6.407214827619E+01 -7.123629670563E+01 4.348337067004E+01 -2.479493686575E+01 1.191686168628E-01 -1.285442300631E+01 5.802002006013E+01 4.063901229605E+01 -1.307339539737E+01 -7.008595341223E+01 4.069647830960E+01 -4.335892874407E-01 2.262209348019E+03
 1.831430166607E+01 2.858399750664E+02 1.658194910831E+02 -3.567078322139E+01 -2.677100722563E+02 7.670598551558E+00 1.617663604916E+01 1.599938512016E+02 -1.974653096613E+02 3.428106805856E+01 -3.451395954004E+02 -1.516587209680E+02 1.089487268750E+02 3.584505107573E+00 -3.716870616160E+01 6.482630261423E+00 4.835054917079E+01 -3.068164744989E+01 -5.919825117800E+01 1.272683431464E+02 2.791561788221E+02 -2.382716473023E+00 7.444860651893E+01 1.703740559220E+01 -6.727423975139E+01 6.139975301248E+01 -3.176520713391E+02 -1.141722996437E+02 -4.836144453887E+01 3.051156802242E+02 2.834911607573E+02 -6.881114900325E+01 -1.515755957013E+02 5.663876089896E+01 8.610000204407E+01 -1.436833528244E+02 8.609963304008E+01 -2.358565726015E+01 -9.670750396240E+00 -1.697941034222E+01 9.492985205346E+01 5.911232452281E+01 -6.544045953360E+01 -9.725400566861E+01 5.036461964349E+01 2.897171295680E+00 4.957640757487E+01 2.335463454232E+03
 -7.909831124577E+00 -1.724224789216E+02 -9.867814759206E+01 1.279333781129E+01 1.604394525208E+02 -4.368696975882E+00 -8.518359025678E+00 -9.568053349129E+01 1.148368270258E+02 -1.778546207760E+01 2.029110751197E+02 8.984635448332E+01 -6.133340672789E+01 -5.134919884491E+00 2.596918714545E+01 -6.314913777502E+00 -2.818628786090E+01 1.618081449307E+01 3.502051823537E+01 -7.138042603878E+01 -1.737622657824E+02 1.359652635732E+00 -4.179191830069E+01 -9.787198283257E+00 4.183799360598E+01 -3.664118947093E+01 1.884217304963E+02 6.608730923726E+01 3.005373919136E+01 -1.834294614563E+02 -1.685687178987E+02 4.041517837064E+01 9.242143929894E+01 -3.452709592815E+01 -4.808902124914E+01 8.669153193456E+01 -5.181095014814E+01 1.186467723698E+01 6.709239509812E+00 9.449090450907E+00 -5.530119912032E+01 -3.361792451632E+01 4.296858035625E+01 5.472440804188E+01 -2.753781659338E+01 -2.087580049075E+00 -3.049624251498E+01 -5.660598802382E+01 2.274559622619E+03
 -3.959849947432E+01 -2.876944138154E+02 -1.758037107615E+02 9.365317760550E+01 2.767912883892E+02 -9.952758212918E+00 -2.435324075804E+01 -1.667901915013E+02 2.273114878538E+02 -5.413131306707E+01 3.822283581915E+02 1.635266338109E+02 -1.383638551282E+02 1.648340239728E+01 1.418300782548E+01 9.059814203401E+00 -5.518557236978E+01 4.617916042376E+01 6.417646798074E+01 -1.640350899943E+02 -2.453288998847E+02 2.598307610925E+00 -9.599232203782E+01 -2.084537027866E+01 5.954521463915E+01 -6.465385180127E+01 3.408324910109E+02 1.335394775718E+02 4.276710990693E+01 -3.112926225897E+02 -3.015475795405E+02 7.687028882094E+01 1.458876882737E+02 -5.437339133666E+01 -1.122712197521E+02 1.445481631855E+02 -8.739447399609E+01 3.947485938712E+01 4.195549545612E+00 2.225780565976E+01 -1.085929947685E+02 -7.313647681837E+01 4.290111300085E+01 1.242851044922E+02 -6.986302822799E+01 -5.958251659225E-01 -4.591264917830E+01 -9.839354287623E+01 5.987981580520E+01 2.336520055786E+03
 2.825234837735E+01 3.981391314008E+02 2.323671248904E+02 -5.873064616267E+01 -3.734390097067E+02 1.028306226443E+01 2.399024694992E+01 2.233717983290E+02 -2.791570583408E+02 5.013909912361E+01 -4.863521792615E+02 -2.128722906329E+02 1.567226757165E+02 2.436338054950E+00 -4.773868003796E+01 6.111411113646E+00 6.831450185390E+01 -4.528440904613E+01 -8.312793237038E+01 1.825138357012E+02 3.833551673511E+02 -3.806462636568E+00 1.063691680622E+02 2.365729498379E+01 -9.220261669988E+01 8.563540432878E+01 -4.457523768025E+02 -1.616458245380E+02 -6.654007812780E+01 4.255113187268E+02 3.972708209466E+02 -9.648778893008E+01 -2.102639934789E+02 7.882760236893E+01 1.237287184399E+02 -2.000262540652E+02 1.201782222668E+02 -3.517376874537E+01 -1.222592754039E+01 -2.458134559740E+01 1.341831578798E+02 8.426989676600E+01 -8.730188970099E+01 -1.391380927392E+02 7.263849295743E+01 3.768131757497E+00 6.853594483072E+01 1.321939032223E+02 -7.922757095494E+01 -1.363342525887E+02 2.425657120809E+03
 3.996969519939E+01 -3.449167558292E+02 -1.735982239654E+02 -1.286320927560E+02 3.021015309116E+02 -3.752106136888E+00 4.773168138680E+00 -1.765112805809E+02 1.539125213083E+02 1.595531592261E+01 3.126213518832E+02 1.507645323860E+02 -4.543144809364E+01 -6.315855626373E+01 1.144510682328E+02 -5.486516777030E+01 -3.903113237071E+01 -8.684844584260E+00 5.786358923075E+01 -4.729729039119E+01 -4.426057235710E+02 1.603732505443E+00 -2.815889785708E+01 -1.053930915298E+01 1.057902864631E+02 -6.610514748666E+01 3.205133498788E+02 8.284029033413E+01 7.576583068919E+01 -3.558932113764E+02 -2.940514449145E+02 6.121637371270E+01 2.024708540123E+02 -7.565978226271E+01 -2.806449577457E+01 1.737201734479E+02 -1.015062902612E+02 -1.810557528727E+01 2.867894879238E+01 4.958245689273E+00 -7.589202373279E+01 -3.108686024136E+01 1.475623633473E+02 3.954231491522E+01 -4.532994883708E+00 -1.024993205104E+01 -7.151556755121E+01 -1.049040280333E+02 5.977179238392E+01 1.290041868375E+02 -1.495004250151E+02 2.298244607055E+03
 -2.136949804823E+01 -7.600344857044E+00 -1.332967487874E+01 5.875527911341E+01 1.415111352083E+01 -2.036208057316E+00 -8.614689869198E+00 -9.815257441560E+00 3.364836076860E+01 -2.019316463462E+01 4.414886977055E+01 1.488639894750E+01 -3.188229733275E+01 1.969854782423E+01 -2.246292295280E+01 1.568208498237E+01 -7.786020846671E+00 1.621063741071E+01 6.143772497110E+00 -3.915708044168E+01 2.818694075880E+01 5.053572435316E-01 -2.272858725367E+01 -3.806823193045E+00 -6.504850400912E+00 -4.311663018506E+00 2.958717282867E+01 2.152245575973E+01 -4.572725511496E+00 -1.224445469054E+01 -2.370459812693E+01 9.158613792327E+00 -2.552243070665E+00 9.460100442195E-01 -2.781672412307E+01 3.702864065048E+00 -3.098197691475E+00 1.630289839340E+01 -5.483394351672E+00 5.686247470378E+00 -1.553828340293E+01 -1.511696382525E+01 -2.137032029799E+01 2.877125813173E+01 -2.025933053950E+01 2.193867061598E+00 2.615427323101E+00 -5.633733009529E+00 4.376595209431E+00 -8.482276394201E-01 -6.891428601731E+00 2.607822422189E+01 2.234505486603E+03
 -1.386871057073E+01 2.510525445736E+02 1.331924285919E+02 4.938021355542E+01 -2.244767883781E+02 3.132967244892E+00 3.050055372454E+00 1.322260159200E+02 -1.332809498967E+02 2.234200638116E+00 -2.545266113444E+02 -1.179446452881E+02 5.588192817064E+01 3.160708589445E+01 -6.483610622107E+01 2.716441891140E+01 3.331554419207E+01 -5.665357747490E+00 -4.554865053583E+01 6.129731407918E+01 2.950488206953E+02 -2.111588666990E+00 3.554418011266E+01 9.370771148502E+00 -7.035551003310E+01 4.972108086171E+01 -2.494680371714E+02 -7.404927663164E+01 -5.080075578968E+01 2.620271823033E+02 2.262262945852E+02 -4.943718686811E+01 -1.425748881904E+02 5.365625395804E+01 3.968829343449E+01 -1.262272829205E+02 7.468303937083E+01 1.370083272192E+00 -1.598235793735E+01 -7.774775573261E+00 6.508647644349E+01 3.272461201987E+01 -8.938944155394E+01 -4.821640270955E+01 1.709834544215E+01 5.849790578457E+00 4.918361120852E+01 7.862120841436E+01 -4.560686405647E+01 -9.099203163148E+01 1.116244245847E+02 -5.922289013930E+01 -1.410065055847E+01 2.293488109583E+03