#BIOSYM hessian 1
@Type: Hessian Update
@Units
 distance: 	A
 energy: 	Kcal/Mol
#header
@natom 19

#label
L1      L2      L3      L4      L5      L6      L7      L8      L9      L10     L11     L12     L13     L14     L15     L16     L17     L18     L19

#element
Li Li Li Li Li Li Li Li Li Li Li Li Li Li Li Li Li Li Li

#matrix
57
 1.628638518635E+01
 4.238830219633E+00 2.286626138249E+01
 1.881225343528E+00 1.403756881119E+00 1.201057158331E+01
 1.201022901623E-01 5.942514146099E-01 -1.393792046501E+00 2.818667267666E+00
 2.719309999801E-01 -4.873293636389E-01 -1.573786387652E+00 7.556201661247E-01 3.108001060748E+00
 1.626880180619E-01 -6.283146834477E-01 -7.785911434954E-01 3.088655726388E-01 1.664052379716E+00 2.275700532890E+00
 -1.683653691060E-01 -4.009101155876E-01 5.189702189899E-02 4.366605735143E-02 7.626157489931E-01 3.694721157406E-01 1.070512564536E+01
 9.478834590473E-02 1.109627051386E+00 -1.009440157239E-01 -1.653140599743E-01 -1.473092861967E+00 -9.517460464922E-01 -1.368641662590E+00 1.379701643485E+01
 7.247345543905E-01 1.642860842555E+00 -1.430183691059E+00 3.604142782413E-01 8.368877578578E-02 -5.694489939702E-01 -3.778365812553E+00 8.584307881880E+00 1.689648294359E+01
 -1.931406271183E+00 1.051528104983E-01 3.278692288876E-01 -6.759971911823E-01 -2.293554729486E+00 -1.499121685285E+00 -5.953803001612E-01 1.610361475174E+00 3.317567979724E-02 5.921266343341E+00
 3.506543089396E-01 6.911301586897E-01 -1.917557052743E+00 6.253815235038E-01 6.560344525736E-01 -4.593236384512E-01 6.583672974258E-02 6.356586559766E-02 8.554923389920E-01 1.396659271269E+00 5.829160035345E+00
 6.896061718847E-01 3.838796763239E-01 -2.597109766119E+00 1.546721153289E+00 4.846403333728E-01 2.655003953611E-01 2.920719926369E-01 -2.112130875228E-01 -7.151025195896E-01 -9.649287416797E-02 1.520143540155E+00 7.201999594616E+00
 -9.994938619427E-01 -2.471862343070E+00 -1.967386129730E-01 -1.302443793133E-02 1.099050111238E+00 9.799094868782E-01 -9.919263945584E-01 -7.010745905951E-01 8.118979037570E-01 -1.327354948251E+00 -1.887642617074E-01 -4.759766639333E-01 2.465063986063E+01
 -6.821029830003E-01 -1.904612727153E+00 1.819814164603E-01 2.849506916926E-01 2.092927545617E-01 9.677750695815E-01 -2.998193193281E+00 -7.794382103773E+00 -4.361164054679E+00 -4.376859105405E-01 -5.435212206523E-01 6.070574315667E-01 1.095740247535E+01 1.603370682979E+01
 1.828164202373E-01 -3.372903268155E-01 -1.358340751834E-01 1.895844315688E-01 9.607918861041E-01 -1.839597989678E-01 -1.081122434051E+00 -6.149113221608E+00 -3.394700351117E+00 -2.196796581939E-01 3.986009621809E-01 4.633696089457E-01 -1.924919001860E+00 2.629076591006E+00 1.008943544424E+01
 -6.854698433707E-01 -1.506136544511E+00 2.599904072052E-01 -6.503469766612E-02 2.557657658111E-01 2.224066410400E-01 1.198516404440E-01 -2.787980408887E-01 -1.483497361794E-01 -3.421204030211E-01 -1.242877844714E-01 -3.023564593580E-02 -6.474267920246E-01 -2.980881529767E-01 1.270587982509E+00 3.234392845088E+00
 -1.505421785781E+00 -3.336756935227E+00 1.093845880469E+00 -3.570705831854E-01 6.795030794408E-01 4.548710803937E-01 4.623632948026E-01 -1.672900076379E-01 -5.207406357211E-01 -8.913050635765E-01 -7.093284077705E-01 -3.638979258763E-01 1.502958845928E-01 -3.923107253813E-01 3.606400799146E-01 1.459263177543E+00 6.791106886447E+00
 9.426789352182E-02 -2.307344661517E-02 -1.087671835443E+00 9.986361595919E-01 1.377899952892E+00 9.890985830815E-01 2.119980584933E-01 -8.516054222620E-01 -1.868710294039E-02 -9.488216923416E-01 9.076059343967E-01 1.999798752720E+00 5.784265941823E-01 4.123908376931E-01 -2.724589262722E+00 9.866853067165E-01 2.088115567983E+00 9.796958320418E+00
 9.217636814323E-02 -2.046022214407E-01 1.532265853765E+00 -6.871167964547E-01 -2.277414715256E-01 -1.245047655141E-02 2.968634254279E-01 -4.539879479451E-01 -4.432565658898E-01 -5.694111442002E-01 -7.069936363980E-01 -8.969644959633E-01 8.067230375013E-01 4.657397289058E-01 -4.988845286099E-01 2.635875804364E-01 7.958491867930E-01 -9.379431097481E-02 1.579675026414E+01
 5.342918972452E-01 7.605281582610E-01 -3.208841684573E+00 6.925078901946E-01 -5.886512880556E-01 -8.420272480654E-01 -5.590919964042E-01 -1.103214087817E-02 9.128486338705E-01 1.273654217028E+00 1.388212378455E+00 1.051483563182E+00 8.071262237837E-01 4.185418710118E-01 -1.121419557580E-01 -6.431738025059E-02 -6.125047487213E-01 1.550224878973E-01 -7.362076601292E-01 1.148685643191E+01
 1.876273943453E-01 -1.221122604725E+00 -1.965209651122E+00 -9.689215350452E-01 -1.191347953154E+00 -8.619293840543E-01 1.262580371546E-01 7.052901738772E-01 -8.469632429030E-01 7.093855659111E-01 -3.865747797268E-01 -1.767193190933E+00 7.887400008223E-01 1.996597217548E-01 2.173092709400E-01 5.893653647508E-02 3.078089899032E-01 -1.312186508312E+00 6.051984377782E-01 3.386032278381E+00 7.216177533183E+00
 4.510045810184E-01 1.076183086718E+00 2.988105594354E-01 -4.921158716494E-02 3.538879842541E-01 -4.480025628301E-01 -4.072500456984E+00 2.933965591561E+00 5.270169550352E+00 6.117398027605E-02 4.851861211437E-01 7.625594932086E-01 -1.961071873408E+01 -1.170894335880E+01 3.080810152782E+00 -8.684900100765E-01 -2.522161022408E-01 -1.514483259037E+00 -1.442628668712E-01 -2.376244211791E-01 -4.610843765418E-01 4.420864173147E+01
 -4.741014761300E-01 -1.505749578007E+00 2.304188736275E+00 -3.689395953454E-01 9.734901596034E-02 -4.928684551151E-02 4.817944788785E+00 -2.027983103612E+00 -5.391860699688E+00 2.066176718501E-01 -4.163180546639E-01 1.273146978000E+00 -1.338803158858E+01 -8.082434351849E+00 1.544868299486E+00 -6.329034268308E-01 2.523745182074E-01 -1.103321423914E+00 8.010626295741E-02 -4.074238504388E+00 -1.054455911051E-02 1.830121296145E+01 3.058863977880E+01
 -9.548547430820E-01 -1.535181344153E+00 -1.747724177923E+00 -2.736892397299E-01 3.625923234987E-01 -9.473205519661E-02 6.722279694885E+00 -9.446742195184E-02 -3.369875730985E+00 -3.816611086783E-01 1.994024289944E-02 -5.295664586919E-01 -1.138950438870E+00 -3.301450005308E+00 -2.385265377597E+00 -2.355946892455E+00 -1.463706927792E+00 -4.414299874682E+00 -6.339841896629E-01 1.265297583018E+00 1.307624189288E+00 9.827236124394E+00 1.423017842504E+01 3.083790576151E+01
 -2.647677727935E+00 3.027233444371E+00 1.510465213268E-01 2.016088268411E-01 8.437049513841E-01 5.945049677401E-01 6.157809991596E-01 -6.943514122331E-01 -5.523934459114E-01 -9.794136950585E-01 9.096347437962E-02 5.478459675468E-01 5.144953212656E-01 2.638598845023E-01 7.309855461904E-02 1.959652869891E-01 5.781126518771E-01 8.251419854726E-01 8.787206809596E-02 -4.298656469883E-01 -8.024914573593E-01 7.703148735869E-01 8.068167943764E-01 5.669320409108E-01 5.168144974928E+00
 3.726414407336E+00 -3.103593290867E+00 -1.902647055357E+00 6.349916072654E-01 -7.365700007432E-02 -7.667153553043E-01 -5.134646603881E-01 5.164913083752E-01 1.090573465108E+00 1.112118675411E+00 1.109447019789E+00 8.696096634646E-01 -4.812567572097E-02 -3.496269555465E-01 1.910900988040E-01 -2.915343491056E-01 -8.725243890619E-01 -1.435883621199E-02 -8.844288717380E-01 1.351506065180E+00 5.723292153723E-02 -3.183677248795E-01 -1.039934917930E+00 6.402830910746E-01 -2.437502689633E+00 1.134551055766E+01
 3.310382404505E-02 1.020062202412E-01 1.204755115664E-01 1.739077446027E-01 -9.070274956687E-01 -6.488929298466E-02 -2.374590333948E-01 5.147532296222E-01 -7.089994640873E-01 1.014656490774E+00 -3.987206038146E-01 9.581032217191E-01 2.329731560948E-01 8.920093231219E-01 -8.116687538078E-01 -1.716417752479E-01 -3.150071951529E-01 1.771929903529E-01 -4.969520185483E-01 8.091199867425E-02 -4.465086858589E-01 -6.350765459766E-01 1.435271526576E-01 9.844254227446E-02 -1.763987260438E-01 2.534760118087E+00 4.362942269905E+00
 5.964624768697E-01 1.789503878860E+00 -1.306253490930E+00 6.719749088223E-01 -3.934319164369E-01 -5.649840719105E-01 -4.097996386037E+00 -1.739338788207E+00 -9.699681209020E-01 1.193257467754E+00 9.615628760677E-01 7.792209956405E-01 1.968805737957E+00 2.113497967178E+00 1.278452762984E+00 -2.462984932189E-01 -1.084359906172E+00 -1.062830880386E-01 -1.238813277549E+00 8.607573712959E-01 -1.160940434706E+00 -1.194961140383E+01 -1.001310126141E+01 -1.150858267365E+01 -1.072245816908E+00 1.014238444623E+00 -9.736552339491E-02 1.607084086658E+01
 4.774984376411E-01 2.048722750326E+00 1.793971270711E-01 -3.212226743369E-01 -1.835885641550E+00 -5.112982738451E-01 -1.208751833630E+00 -1.335190421133E+00 -1.584098937838E+00 1.000381698365E+00 -3.998791845594E-01 -1.380129700096E+00 2.510352173554E+00 3.217020770473E+00 1.746267238953E-01 -1.900922470648E-01 -8.338302271962E-01 -9.062191892039E-01 5.785400248622E-01 -8.207642794640E-01 3.561905205071E-01 -1.236005595094E+01 -1.009307177221E+01 -1.031433083786E+01 -1.154494819211E+00 2.109274000193E-01 5.296609888831E-01 8.226887205458E+00 1.623303888531E+01
 1.188125967887E+00 3.129848473041E+00 -2.296792722227E+00 8.455478901848E-01 -2.427895733486E-01 -1.115978423695E+00 -8.686135524962E-01 -2.310782765484E+00 -7.827482601334E-01 1.262238154500E+00 1.789103960199E+00 9.113420534679E-02 3.017885326551E+00 2.541344690113E+00 2.017850721926E+00 -3.270524932397E-01 -1.493703700827E+00 -5.752001950142E-01 -1.370163380079E+00 1.721134406091E+00 -1.294746500559E+00 -1.643625864410E+01 -1.468978767447E+01 -1.517442037454E+01 -1.266019374012E+00 1.885372551546E+00 -8.161352239866E-01 1.227506998471E+01 1.294904215771E+01 2.659766308067E+01
 -2.839939194582E+00 -2.900678044457E-01 -2.633006485494E+00 -9.759463712446E-02 2.314378686451E+00 1.220413405981E+00 6.500232159481E-01 -1.320078557115E+00 -7.242421040742E-02 -1.569239325192E+00 8.087076446747E-01 1.250052063593E+00 3.520077073994E-01 4.879721520249E-02 6.420227589702E-01 7.914818702887E-02 7.278129020868E-01 1.248151062072E+00 1.069878739992E-01 -1.344939890502E-01 -1.097321572186E+00 1.138706497248E+00 7.783013796152E-01 5.786562830275E-01 7.304908288109E-01 -1.450972831206E+00 -1.349368702031E+00 -7.241276822986E-01 -1.770032245649E+00 -7.699045106328E-01 6.928647417430E+00
 -4.639619023946E-01 -4.584772767464E-01 1.316033799240E-01 4.664017001046E-02 3.536510226153E-01 1.010555661597E-01 1.049524554645E-01 -3.704714085948E-01 5.197240263924E-01 -9.275921350682E-01 -1.067005186499E-01 -1.191137045177E+00 -1.785918406229E-01 -5.387275305602E-01 4.655096588564E-01 4.232057317058E-01 -3.219265792665E-01 9.425738098980E-02 2.988485036129E-01 -3.298838736371E-01 1.578724213614E-01 1.181021507859E-01 -2.115013846165E-01 -4.452194295834E-01 -1.160160714077E+00 -4.713119374174E+00 -3.361320823495E+00 9.841021510523E-02 -1.249152645461E-02 3.841362087441E-01 1.672977400944E+00 6.149503235530E+00
 -1.835551721149E+00 -1.733842094669E-01 -1.695676214290E+00 1.027708017926E+00 2.577664020630E-02 3.076893236126E-01 3.828705545893E-02 2.675074006894E-02 -3.315363382962E-01 4.365301086256E-01 5.030637802315E-01 1.922193377686E+00 -6.177524567471E-01 3.282069048252E-01 -1.789269549321E-01 -2.322583247351E-01 5.479123774041E-02 5.233299599232E-01 -6.783180101118E-02 5.962028920108E-01 -5.942456804864E-01 3.744120223793E-01 4.773531938786E-01 -5.656416547135E-01 -5.835203190597E-01 -2.615597463998E+00 -1.094280550976E+00 3.329557188104E-01 -1.005638429272E-02 -2.029346812567E-02 2.543298671163E+00 1.935475786669E+00 4.246613184944E+00
 -1.242544068288E+00 -1.368791647475E+00 1.426066023692E+00 1.905806145369E-01 1.318002874941E+00 1.548540798711E+00 2.596312025364E-03 -8.887928658218E-01 -2.005100628007E+00 -1.844977098705E+00 -1.052550174369E+00 3.819110268710E-01 -6.088466299300E-01 -2.958216940141E-02 -2.301496879845E-01 -2.247288161958E-01 1.293623405995E+00 1.855842240382E+00 -5.790917385728E+00 -5.631917596980E+00 -3.300561887930E+00 -1.220596106774E+00 1.944031516647E+00 -1.908968528891E+00 8.852693983925E-01 -1.727509626499E+00 3.472839202054E-01 -5.432231279778E-01 2.271739197089E-02 -1.615125170707E+00 1.047345494578E+00 2.060226066469E-01 8.608964971484E-02 1.210823007617E+01
 -1.242132023026E-01 -2.419836139331E-01 1.794907147061E-01 -2.233722046347E-01 -4.600864669856E-01 2.256043337015E-01 -3.731337554339E-01 1.265584569232E-01 7.202231704238E-01 -1.101786733206E-01 -7.143670838609E-01 -8.523368395681E-01 -1.413825599021E+00 -7.240630110874E-01 -2.706451545047E-01 7.259787381411E-01 -2.327129809250E+00 -1.442347250377E+00 -4.699860447630E+00 -3.150527296399E+00 -1.655016675107E+00 6.504364720014E-01 -9.690764731895E-01 -7.077335528454E-01 -5.732381735909E-01 -1.034048255507E+00 9.528333150195E-01 6.336653433778E-01 1.520268374530E+00 6.895182602854E-01 -6.675757407142E-01 -1.073303567556E-01 -3.114470193974E-01 3.344264960090E+00 7.700926249979E+00
 4.127391975390E-01 -4.653087355248E-01 3.642263637951E-01 -5.358376681054E-01 -5.563584813955E-01 7.279676208842E-02 -1.670880598405E+00 7.542563167534E-01 -4.463948110537E+00 1.423512308978E-03 -7.169299289541E-01 -9.498999304247E-01 -1.224984223498E+00 -4.124135706078E-01 -4.096827827990E-01 4.522968214531E-01 -1.104546082669E+00 -1.326083497238E+00 -2.372101483791E+00 -2.017465259296E+00 -5.564425287992E-01 -2.682902902266E-01 4.657015936109E-01 -1.243583125482E+00 1.240050772393E-01 2.295620714781E-01 7.755797710195E-02 1.790467876560E-01 1.098371063833E+00 1.787759032169E-01 -6.364757124599E-01 -1.994621741902E-01 -5.676314499394E-01 3.324382323436E+00 1.991061547948E+00 7.787495476127E+00
 -1.035645508814E+00 8.270383244754E-01 1.256499477301E+00 -7.959876774695E-01 -1.265815884852E+00 -3.688768105666E-01 -4.464532270626E-01 6.275649856008E-01 -4.296188541254E-01 4.129208088917E-01 -2.172640644500E+00 -6.985570901294E-01 -1.673614421540E-01 2.389763766215E-01 -6.824322751246E-01 -2.180167512054E-01 -1.417143931469E-01 -8.698823155907E-01 3.597729114473E-01 -4.145272267050E-01 7.527394294874E-01 -1.350991776066E+00 8.100946952146E-02 5.274036827573E-02 -5.553738516920E-01 -4.984814496115E-01 5.735880536643E-01 9.937763184109E-02 1.380117865537E+00 -4.017847766416E-01 -1.294809342763E+00 -9.864707976423E-02 -2.496075435168E-01 -2.242245176924E-01 5.930577923306E-01 5.822810093559E-01 3.010076926886E+00
 8.761788576954E-01 -2.137217333251E+00 1.709519287461E+00 -9.073600955063E-01 3.950061589078E-01 6.110991619447E-01 5.036780073527E-01 -1.067820776370E+00 -9.093353217876E-01 -2.399423999726E+00 -3.538362559219E+00 -7.426847052208E-02 4.112352984681E-01 1.403041926833E-01 5.928584792635E-01 2.614708221164E-01 1.202407186348E+00 -1.600342441053E-01 1.112982623108E+00 -1.735452385933E+00 -1.386599753788E-01 8.191093584868E-01 1.105365559700E+00 7.352976744744E-02 6.518993414675E-01 -1.280545545332E+00 -4.584461593110E-01 -1.456351788496E+00 -1.126566140609E+00 -2.025802785285E+00 4.831573587842E-01 5.457503319308E-01 -6.293677010936E-01 1.512588198509E+00 -5.639993403985E-02 2.176459264355E-01 -8.389212624867E-02 6.408259839137E+00
 -2.478067377030E-01 -2.062356641156E-01 1.461520201496E+00 -9.114722939271E-01 -4.539267763149E-01 -3.303328185007E-01 1.012220785033E-01 4.145494269929E-02 -9.142395744501E-01 5.567525990522E-01 4.005852346665E-01 -2.144305772118E+00 1.824730257956E-01 1.614789929759E-01 -1.420517134148E-01 -5.954154330372E-02 3.203687274847E-01 -7.575365840963E-01 8.191612767748E-01 -7.890030080672E-01 8.111337736466E-01 7.432478331294E-01 5.491377240062E-01 -2.324879723847E-01 -9.219369569199E-02 -9.049131763592E-01 -1.493298627016E-02 -8.249572111419E-01 -6.538067858770E-02 -1.367726155188E+00 -6.373975440850E-01 2.291419738204E-01 -4.101739863588E-01 -9.699717235606E-02 -2.034897420821E-02 5.037012773557E-01 1.381610020513E-01 -5.293824647869E-01 4.031467146642E+00
 1.422253849160E-01 -1.461191794944E-02 6.545246529357E-01 -5.710344053068E-01 -1.218163771378E-01 -2.612488380170E-02 -5.585355715272E-02 -2.032880288253E-01 2.342298804715E-01 -6.228314207874E-01 -6.114802609829E-01 -1.578102800408E+00 -2.185312503850E+00 1.299103204021E+00 8.075805842306E-01 -4.918173554339E-02 2.532691696516E-01 -5.573127253960E-01 -2.704926777578E-02 -5.700044544116E-01 3.737067457013E-01 -5.501506607965E-01 -4.537571538677E-01 -1.033267813936E-01 -1.883810579386E-01 -2.294648186321E-01 -3.976081183333E-01 2.428665365692E-02 4.101283908426E-01 1.715741993116E-01 -1.870886608842E-01 4.701088578758E-01 -5.991898668582E-01 1.531841851475E-01 4.133639393739E-01 3.473440974355E-01 3.036017963095E-01 5.155866589604E-01 3.958267063527E-01 4.635811957064E+00
 6.518074005927E-02 -3.286082028269E-02 -4.442180515970E-01 8.250927574070E-01 1.424184125919E+00 9.554963655725E-01 6.823320386202E-01 -1.267028324508E+00 -9.624679487819E-01 -9.350981302876E-01 4.913255569228E-01 2.112243566680E+00 2.024228507423E+00 2.417740160716E-01 -5.620705334784E-02 3.036023998891E-01 2.971800655701E-01 1.854333337891E+00 -1.841249069823E-01 -5.816984460757E-01 -1.121440262345E+00 3.954702925090E-01 -2.624496923513E+00 -1.031756398169E+00 8.660427845746E-01 -6.018697445210E-01 -7.146151555973E-02 -2.543647677288E-01 -1.339212421341E+00 -1.055996239346E+00 1.599197112165E+00 4.088185366042E-02 8.135556683363E-01 1.488772248118E+00 -4.698433082463E-01 -3.792586072507E-01 -9.099303387188E-01 3.061962675640E-01 -3.464869867136E-01 -1.197507359230E+00 6.800676808526E+00
 9.506021497015E-02 -2.745717425535E-01 7.120511638324E-01 -7.198862538834E-01 7.706275697032E-01 1.589260955986E-01 3.026210276024E-01 -6.755852361550E-01 3.979237743693E-01 -1.581357867749E+00 -4.911758596441E-01 -2.194677611794E+00 1.245650715244E+00 -1.049470714527E+00 1.440061306685E-01 6.772580770465E-02 7.763916042042E-01 -6.804299783587E-01 7.211523195842E-01 -4.981534108577E-01 5.305300209877E-01 6.303371498052E-01 -7.589847328687E-01 4.680193285004E-01 3.876848776755E-01 -4.662463927926E-01 -1.059259054531E+00 -8.231188473441E-01 -5.438824183693E-01 -1.859957581009E-01 4.610450874567E-01 8.336933536320E-01 -1.036751379638E+00 7.927276303778E-02 -2.058912493375E-01 1.207470906863E-02 -1.552133570652E-01 1.339862024231E+00 2.155303113793E-01 4.426793375688E-01 1.104283827812E+00 3.166563109566E+00
 -1.859722558304E-01 -4.244657799057E-01 1.404497030647E+00 -1.038341791490E+00 -6.626145970402E-01 -1.304234333913E-01 -2.501403009554E-01 2.204285962288E-01 1.593750200996E-01 -5.853322860243E-01 -1.328575090674E+00 -2.595471986722E+00 2.943714203502E-01 -4.714849643610E-02 -5.207399278153E-01 2.634766802794E-02 1.707428557784E-01 -9.767840961355E-01 4.170265580723E-01 -6.971385198005E-01 8.675252081291E-01 -7.323972227911E-01 -6.948399737850E-01 -3.999538336938E-02 -7.291586244090E-01 -4.987626224395E-01 4.890387518838E-01 -3.780900252364E-01 1.055549385589E+00 -3.104477960334E-01 -1.496672278799E+00 1.290968771855E-02 -6.105202748131E-01 5.510474068113E-02 6.494999825525E-01 6.419923375437E-01 8.656869137386E-01 8.002554148356E-01 7.367130285803E-01 7.852780513436E-01 -1.064220253270E+00 9.005240439912E-01 2.916582551638E+00
 6.593294364249E-02 -6.909093004995E-01 1.574633931751E+00 -1.185505461038E+00 -3.140691925084E-01 -3.203536999137E-01 -1.509696998046E-01 7.149031411990E-02 5.662522492551E-01 -7.684545807908E-01 -1.037444169095E+00 -3.017342543970E+00 3.012556209404E-01 -6.924236237014E-01 1.056329592742E-01 6.627776905481E-02 3.375597276661E-01 -1.292298593956E+00 5.207837090798E-01 -5.909317696501E-01 1.122010953576E+00 -3.844102989371E-01 -5.183474358943E-01 3.155153102677E-01 -1.951067032902E-01 -4.539826295772E-01 -1.097920321060E+00 -3.226563598739E-01 5.042115784329E-01 5.612066034422E-02 -1.090383943209E+00 5.147695658992E-01 -1.084005985271E+00 -4.007204156060E-01 2.579953133036E-01 3.526965318090E-01 5.299948769056E-01 1.020983286805E+00 7.391802565349E-01 1.003291104417E+00 -1.119736473215E+00 1.469336621808E+00 1.922953292029E+00 2.874142637401E+00
 -2.448213428295E-01 3.325077248031E-01 -6.877477373162E-01 7.706489010331E-01 8.586583424320E-04 6.280013969696E-01 1.891009197197E-01 -3.449106207111E-01 -1.662993558885E+00 6.543589754534E-01 1.630656413083E-01 2.842492462989E+00 -1.683977559182E-01 1.309204907763E+00 -2.970707326780E-01 -2.560341890223E-02 -7.084475306525E-02 1.126287705407E+00 1.435563513429E-01 -2.406490092190E-02 -8.742644959470E-01 3.936517251111E-01 1.610854383964E+00 1.497696149802E-01 1.167757682000E+00 -8.813570654212E-01 3.810107981665E-02 -5.053835893840E-01 -8.114431022200E-01 -1.873554116680E+00 6.432996617137E-01 -6.381046474353E-01 1.258582251580E+00 8.671148145246E-01 -2.756307496874E-01 -5.159513424833E-02 2.119673731757E-03 -4.357423232321E-01 -2.467845608565E-01 -8.678759186934E-01 1.361242518608E+00 -1.602747478831E+00 -1.440879698325E+00 -1.618641035241E+00 5.192875062635E+00
 1.141216285973E-01 2.541250674210E-01 -1.249302944794E-01 -5.450099061835E-02 -3.452914193439E-02 2.305965091462E-01 -4.358865831924E-01 4.622189155639E-01 2.171026690747E-01 -5.148366964287E-01 -6.103704658850E-02 -7.061838040985E-01 -2.702141905759E+00 3.345764491809E-02 -2.512775842899E+00 2.958859250643E-02 -5.217920754010E-02 -4.861080897212E-02 2.655304124716E-01 2.594017429499E-01 -1.975265035875E-01 3.041302338769E-01 -1.074352564548E-01 7.186364314741E-01 1.684830650986E-01 3.685709281706E-02 -7.934955188099E-03 -1.178164005222E+00 -1.182104990256E+00 -1.194189671274E-01 1.015279460425E-01 -2.517407504013E-02 -9.951781780555E-02 8.780494538259E-02 3.138389444429E-01 1.046945854709E-01 -5.494803560336E-02 -9.782015757716E-02 -1.217007452651E-01 2.118769159681E-01 -1.546582963450E-01 4.573815560016E-01 3.736211827268E-01 1.404818334990E-01 -2.994453635766E-01 5.203522703379E+00
 -2.256599240045E-01 -4.835947789219E-01 1.638901002735E+00 -9.715640155175E-01 -4.254546455224E-01 4.484310041329E-01 7.991757440560E-01 -1.534530957490E+00 -1.277868469312E+00 -6.374835876514E-01 -1.142225838775E+00 -1.293521576916E+00 5.020668340471E-02 5.029915353227E-01 8.955757973666E-02 1.506602389227E-01 7.558030875308E-01 -4.655075355948E-01 9.623177306546E-01 -1.378346804595E+00 9.533654639841E-02 9.100457710291E-02 3.466035741382E-01 1.271430973919E+00 2.792609595530E-01 -1.212603148720E+00 2.182200804041E-01 -2.381858938972E+00 -2.966393783229E+00 -1.548918544409E+00 -1.728101324277E-01 3.695269864499E-02 -2.985336593030E-01 1.135263931702E+00 3.406304465272E-01 5.541375296399E-01 7.905007803838E-01 1.027045601865E+00 1.032689813501E+00 4.614955801199E-01 9.602854551332E-02 2.743578746946E-01 8.124596886086E-01 5.448893704114E-01 2.948764403768E-01 7.607861471649E-01 5.807338850482E+00
 2.784933951388E-01 2.090728927330E-01 -1.262165372373E+00 5.005691376519E-01 2.720355192575E-01 -7.650785623833E-01 -4.232182407024E-01 6.259418328634E-01 1.474363886279E+00 6.819455671524E-01 1.031550291332E+00 3.938172072210E-01 -2.026182712479E+00 -7.424166516782E-01 -1.219744106248E+00 -1.017431350636E-01 -5.940933916383E-01 -8.988523262826E-02 -8.617057284141E-01 9.321217263166E-01 1.771049804774E-01 -3.885224736085E-01 7.518460168441E-02 -2.192159492519E+00 -5.551730785191E-01 1.295165695262E+00 -5.212178642157E-01 1.436969478160E+00 5.337683829500E-01 2.172128484014E+00 -1.121140305297E-01 2.321416220294E-01 -2.290288427918E-01 -1.345882387999E+00 -2.283410886901E-01 -4.616757143495E-01 -6.432946133411E-01 -7.517055277938E-01 -6.626689573538E-01 -7.192724525507E-02 -6.237134308701E-01 -4.211017757151E-01 -4.761740509404E-01 1.476835736692E-01 -8.706580987072E-01 9.994019298214E-01 -2.802213519185E+00 6.118994794483E+00
 -2.958540709574E-02 8.896512544515E-02 5.246461700663E-01 -5.185688709003E-01 -1.702758144649E+00 -8.960274110953E-01 -4.000832907592E-01 1.020571622065E+00 1.428796430672E-02 1.496764024220E+00 -5.358714571550E-01 -5.186559831907E-01 -2.593399517017E-01 1.777045378009E-01 -5.777769401998E-01 -2.063844180286E-01 -4.746389192871E-01 -8.610005245162E-01 -6.975476780607E-01 -7.955400040212E-02 7.152804128345E-01 -4.256270790164E+00 3.621767074472E-01 -1.362755121954E+00 -9.630098397321E-01 4.632264910810E-01 6.240998208888E-01 -1.213777711057E-02 3.026688170729E+00 1.738025847142E+00 -1.516548015633E+00 -3.130282076558E-01 -1.889371132381E-01 -5.669608420399E-01 7.324853670188E-01 6.188705419358E-01 1.073487783147E+00 -4.660047675636E-01 4.956027032575E-02 -1.443904417500E+00 -2.278014588551E+00 -1.381768242152E+00 4.487612272463E-01 3.964805617560E-01 -7.455985184909E-02 -1.213780115895E+00 -2.111479049797E-02 1.079144824554E+00 7.706237234165E+00
 -1.877774265252E-01 4.285771791795E-01 -1.434078266930E+00 1.034039213876E+00 2.789437001383E-01 1.450856570499E-01 -1.390128195660E-01 1.564408238835E+00 1.159671670743E+00 2.144313280514E-01 9.025894686051E-01 1.001698399453E+00 -1.855897201135E+00 -1.520782832105E+00 -1.055880897104E+00 6.027249582454E-02 -5.237324085606E-01 1.004420745674E-01 9.918605960871E-01 2.786976528335E+00 -8.452647877693E-02 4.789692019683E+00 6.498209667056E-01 2.100325699084E+00 7.871688846915E-01 5.646144361086E-01 3.601204513733E-01 3.656699092202E-01 -3.565534143202E+00 -2.026088517475E+00 2.965974801959E-01 -8.383358064398E-01 7.749382677917E-01 -1.796871012132E+00 -8.799643831718E-01 -7.561333386420E-01 -1.180575615628E+00 -1.215731695572E+00 -7.403406103700E-01 -1.569371478421E+00 -8.423076037351E-01 -4.928922048699E-01 -5.684143308249E-01 -1.401194303092E+00 3.466141126019E-01 1.022688074873E+00 -1.213228094363E+00 -3.741306238216E-01 -2.549730656894E+00 1.117168834977E+01
 2.305292736307E-01 -4.681209784802E-01 8.900159359753E-02 -2.136775999108E-01 1.131570159350E+00 5.340415520031E-02 1.044152542677E-01 -9.809766421920E-01 4.500908811641E-01 -8.608077397534E-01 1.369774461870E-01 -4.548539368320E-01 8.996721543803E-01 -2.410377384496E-01 1.219267473544E+00 4.353412019412E-02 3.787675064952E-01 2.926292223442E-01 -5.939181526203E-01 -1.266673665791E+00 -1.535977595142E-01 -1.709342573599E+00 -3.391192762944E-01 -1.282366688661E+00 -1.734759805673E-01 -3.642515824568E-02 -1.037040404513E+00 1.993885062176E+00 -2.641237551940E+00 -4.757835436353E-01 7.028888334396E-01 9.307113092263E-01 -6.789037203252E-01 7.245710363518E-01 -3.759162273251E-02 -1.588475699504E-01 -6.782406232781E-01 9.145279005362E-01 -1.000566074282E+00 -1.306331778335E-01 1.454870224883E-01 4.492165989820E-01 -3.285534427893E-02 9.254396889083E-01 -8.614093627491E-01 -3.603518690583E-02 2.009396859724E-01 3.686769488137E-01 -3.190464870365E-01 -1.933359528421E+00 6.347622558124E+00
 -2.531626019710E+00 1.019284152357E+00 -3.370826038625E+00 4.457325693034E-01 -9.113468408846E-01 -1.010583825756E+00 -8.732336014021E-01 3.784708916182E-01 6.572726083183E-01 1.705160947757E+00 1.026934652208E+00 3.322664567495E-01 7.069768781546E-01 3.787285078405E-01 4.068845405773E-01 -3.242897425756E-01 -9.675350959519E-01 -4.765400030324E-01 -8.698250094831E+00 4.860303532900E+00 2.389926721780E+00 -1.788946263854E+00 -1.185691314322E+00 1.984725072779E+00 -1.100946644956E+00 1.486543529689E+00 1.107323471422E-01 2.703222460614E-01 -2.730253836502E-01 2.392373337366E+00 -9.264483245726E-01 -1.790377724761E-01 1.407675776045E-01 -1.501707590582E+00 4.526045538316E-01 4.649247903407E-02 -2.683776346577E-03 -2.071298678506E+00 -6.566315610951E-01 -4.057606328459E-02 -8.555467708430E-01 -7.334632333646E-01 -2.553469976411E-01 -1.097253655086E-01 -5.377657545755E-01 -3.218971665060E-01 -1.351238759234E+00 1.321816859410E+00 1.105485539845E+00 -2.930907499366E-02 -1.890110900625E-02 1.412558334675E+01
 -5.903592772309E-01 -1.881103890410E+00 2.002585896260E+00 -1.013083759843E+00 -7.916769554216E-01 -5.251495763533E-01 3.110780388046E-01 -5.032160535914E-02 -1.778362106355E+00 1.164767718909E+00 -1.233895552529E+00 6.425956329890E-01 3.868904529869E-01 5.241225006788E-01 7.176018624814E-01 -7.007377714550E-02 6.429041232099E-01 -3.880294648521E-01 3.102250419197E+00 -4.461845124987E+00 -4.237976796362E-01 -3.025816357640E+00 -1.016027351189E-01 -3.481555589560E+00 -8.387460427280E-01 -9.559957928649E-01 3.646092600515E-01 1.715409599870E+00 5.698597167494E-01 4.588536579351E-01 -9.037265364981E-01 2.602085864418E-01 -2.051335135487E-01 1.113730592713E+00 5.106007969954E-02 4.771646241967E-01 1.396183640155E+00 9.985881545280E-01 1.223818664955E+00 -1.009131123938E-01 4.260115478091E-01 -9.404874528262E-01 -6.154070561624E-02 5.118443946360E-01 1.120627004683E+00 -1.840045253089E+00 1.525638931240E+00 1.378709246253E-01 1.198593011625E+00 -6.650327277632E+00 3.400579742897E+00 -4.341194704150E+00 1.487520466318E+01
 -1.698400070194E+00 6.096349055365E-02 -9.695991381517E-01 -4.838081492869E-01 -4.522561713070E-01 5.783267425876E-01 -5.891992051671E-01 5.124482916279E-01 1.105436377185E+00 -1.314531277019E+00 -1.163412231032E+00 -2.624182869296E+00 -8.389821369323E-01 -2.684644820776E-01 -1.545082751418E+00 6.520586114409E-02 -3.388685436036E-01 -6.144077703385E-01 3.786151606263E+00 -5.339017563205E-01 -4.038354514182E-01 1.066313291825E+00 -4.928958084720E-01 9.171115093455E-01 2.305493059906E-01 -4.327042316424E-01 1.471843849051E-01 -2.981511422886E-02 1.850078143655E+00 -4.359804354515E+00 -4.858438587902E-01 -3.170963316780E-02 -5.110854541228E-01 -3.080138334469E-02 9.067337804268E-01 3.881756209755E-01 3.686860245118E-01 1.314683056147E-01 -1.534950876189E-01 7.531680212462E-01 -1.079526899521E+00 8.883928813496E-01 1.426497204917E+00 6.978462873146E-01 -1.018478928696E+00 1.516820971785E+00 4.359793956615E-01 -1.139762235500E+00 1.248693777392E-01 2.608639423912E+00 -2.191719612619E+00 -1.554096058694E+00 -5.937674328971E+00 1.207122580088E+01