#BIOSYM hessian 1
@Type: Hessian Update
@Units
 distance: 	A
 energy: 	Kcal/Mol
#header
@natom 7

#label
L1      L2      L3      L4      L5      L6      L7

#element
Li Li Li Li Li Li Li

#matrix
21
 8.628144281601E+00
 2.622054603968E+00 7.492222856064E+00
 9.810765211461E-01 1.965706682642E+00 1.187871117839E+00
 -3.527870951766E+00 -3.353080371083E+00 -2.862355569508E+00 1.884815601871E+01
 -5.580656670113E-01 1.468445072999E+00 -1.919907053072E-02 3.469346403254E+00 2.538653953793E+00
 -1.257740932810E+00 -1.955190959314E+00 -9.065670983850E-01 5.162198985541E+00 1.517164423205E-01 4.130162996743E+00
 1.044323683949E+00 1.464504391123E+00 1.140881485038E+00 -9.958204020086E-01 1.239260036984E+00 -1.992816738361E+00 5.521533698097E+00
 -6.569213669946E+00 -8.575842179883E+00 -1.741868586302E+00 1.490134514063E+00 -2.901394022804E+00 7.166547346293E-01 3.905918815766E-01 1.649324034755E+01
 6.755116924845E-03 1.807027089760E+00 1.245981095777E+00 -1.158530517795E+00 7.910286580876E-01 -1.365906893712E+00 3.177858464558E+00 -8.507353058546E-01 3.884687151492E+00
 3.198207375591E-01 3.562911591234E-01 -1.342143088823E+00 5.568431436243E-01 -6.406468151702E-01 1.314121903864E-02 -6.835068884180E+00 -3.751601683158E+00 -3.253667958544E+00 1.676224098895E+01
 1.932114945130E+00 -1.975019845757E+00 -4.609040882530E-01 -1.441981958866E+00 -5.710575539132E-01 -2.132785693663E+00 2.175941196792E+00 3.604999205036E+00 -1.308588011702E+00 -6.303453329998E+00 1.013665015111E+01
 1.487886090385E+00 -1.705752918714E+00 -4.136171504337E-01 4.137860441140E-01 -9.533437115431E-01 -5.960304850414E-02 -8.890249093331E-01 8.559032158081E-01 1.253488469950E-01 4.257280017105E+00 -1.655352410744E+00 4.780225958781E+00
 -7.533792939265E+00 2.750100299060E+00 -2.480702751466E-01 -1.377831504312E+00 1.009746088310E+00 -1.591960655641E+00 -2.921974224332E+00 -4.190101001237E-01 -5.455081519911E-01 6.669210459435E+00 -4.592356680920E+00 -1.980957321424E+00 1.652750949501E+01
 -1.101637065837E+00 3.738957413117E+00 6.137997199556E-01 2.919381422849E+00 1.992807352405E+00 2.149888911731E+00 -8.350968440855E-01 -5.896629817906E+00 9.621787562643E-01 1.037552129373E+00 -6.150421781210E+00 -1.643601752030E+00 4.383077065670E+00 7.563942656706E+00
 -1.336986001048E+00 1.023476127678E+00 -5.970321326218E-01 1.140713632829E+00 7.755535113349E-01 -9.574220803651E-01 -1.430965379094E+00 -1.285711610268E+00 -1.017296792653E+00 4.235454630811E+00 -5.701731020700E-01 -1.238387243015E-01 5.082890179934E+00 7.335845567939E-01 3.103818244826E+00
 -2.728982836537E-01 -2.163857916501E+00 1.868935311125E+00 -4.562513003860E+00 -1.841190068989E+00 3.674452516783E+00 3.446201565979E+00 4.721779517331E+00 2.085672003676E+00 -1.656463381819E+01 3.169141472891E+00 -4.986644042177E+00 -1.008112292659E+01 -1.772830397858E-01 -7.649889495148E+00 2.825779516764E+01
 2.752956422079E+00 -2.687500200884E+00 -8.673157042658E-02 -6.995230430169E-01 -1.593168432187E+00 2.402708802086E-01 -2.822104510290E-01 5.018849229422E-01 2.176495802025E+00 3.908179315869E+00 -3.873496601365E+00 6.255870170874E+00 -5.412196175928E+00 -1.951910165460E+00 -2.138353687899E+00 -1.755174496084E+00 1.187400395831E+01
 1.099483836961E+00 -5.758237363697E+00 -1.674753541080E+00 9.709546206414E-01 -1.891618065130E+00 1.298240521901E+00 -2.988584811060E-01 7.000716610543E+00 -3.867951789294E+00 -5.608700682046E+00 8.797423287298E+00 -1.901001619974E+00 -7.215856606528E+00 -6.083738986649E+00 -2.096617437492E+00 7.884366247527E+00 -3.204492425622E+00 1.469407805678E+01
 1.342273471575E+00 -1.676012165689E+00 4.616756161688E-01 -8.940963300384E+00 -2.678449977378E+00 -4.007274394550E+00 7.408045624950E-01 4.137319540258E+00 -3.125789568292E-01 -9.084126271946E-01 5.060594354972E+00 1.697674121330E+00 -1.281998359945E+00 -6.225993668183E+00 -4.121756828357E-02 -2.228287013231E-01 1.487968428110E+00 3.168611064550E+00 9.271124954776E+00
 9.217904316186E-01 5.387368843449E-01 -2.708030870852E-01 -2.384276967200E+00 -9.342863702932E-01 8.294456840869E-01 -4.152990211360E+00 -3.226258454930E+00 -3.577406988581E+00 5.393679223961E+00 -1.171653573898E+00 -1.153722593651E+00 2.280639503932E+00 7.032543423482E-01 1.461624204431E+00 -1.953415468861E+00 -2.269813481355E+00 1.139946943256E+00 -1.054265120898E-01 6.360020653782E+00
 -9.804746315585E-01 4.622971341645E+00 1.158117708905E+00 -3.666767195823E+00 1.145862235461E+00 -2.138904397678E+00 2.929255582990E-01 -4.694959058556E+00 9.951383813945E-01 1.698635862459E+00 -2.669619980867E+00 -2.407514262562E+00 6.499462830796E+00 3.267888793933E+00 1.688388922608E+00 -2.876892541786E+00 -3.243059169160E+00 -6.451994190842E+00 -9.668898823865E-01 1.570915837543E+00 7.156767838176E+00

