#BIOSYM hessian 1
@Type: Hessian Update
@Units
 distance: 	A
 energy: 	Kcal/Mol
#header
@natom 19

#label
L1      L2      L3      L4      L5      L6      L7      L8      L9      L10     L11     L12     L13     L14     L15     L16     L17     L18     L19

#element
Li Li Li Li Li Li Li Li Li Li Li Li Li Li Li Li Li Li Li

#matrix
57
 2.228022410294E+03
 -1.778521980943E+01 2.216539936676E+03
 -7.314307905223E+00 -1.043651620406E+01 2.236916475927E+03
 -1.588619264608E+00 -2.180058589400E+00 -9.243660169892E-01 2.240650872850E+03
 -8.896475953617E+00 -1.188186174967E+01 -5.446587366726E+00 -1.072901310539E+00 2.235253675714E+03
 -2.555096059471E+01 -3.390353551324E+01 -1.582201712368E+01 -3.066994356790E+00 -1.578065333723E+01 2.196466041448E+03
 4.330818027312E+00 5.989162934933E+00 2.486278963367E+00 5.356079055732E-01 2.981857064616E+00 8.553923951266E+00 2.239385113575E+03
 5.414477146206E+00 7.600898627503E+00 3.005521952956E+00 6.756628385171E-01 3.875048861065E+00 1.118505416292E+01 -1.836605059740E+00 2.238597313173E+03
 1.683093606210E+01 2.235624606480E+01 1.040473061248E+01 2.021954320635E+00 1.042416685275E+01 2.933209224727E+01 -5.635159921175E+00 -7.364133236341E+00 2.221461760250E+03
 -3.259950382838E+01 -4.417537949092E+01 -1.942904745064E+01 -3.970921826949E+00 -2.130315445029E+01 -6.054525949489E+01 1.096261933100E+01 1.401734736998E+01 3.995113802833E+01 2.160967212477E+03
 3.020671864335E+00 5.029130451115E+00 1.029310283188E+00 4.269221971347E-01 3.164318786125E+00 9.603371504029E+00 -1.065431167349E+00 -1.041670327451E+00 -6.274855382530E+00 1.008135366757E+01 2.242121607224E+03
 -1.962672622813E+01 -2.658740344096E+01 -1.171377092180E+01 -2.391220370524E+00 -1.281164587974E+01 -3.640701540768E+01 6.595797195074E+00 8.457190478046E+00 2.402145931111E+01 -4.807857467788E+01 6.112237101586E+00 2.211925652237E+03
 -4.516117984340E+00 -6.283971635617E+00 -2.557079931579E+00 -5.605363321469E-01 -3.159782659157E+00 -9.087575553155E+00 1.527095233369E+00 1.898109802525E+00 5.985390301050E+00 -1.153714935909E+01 1.010799530011E+00 -6.950435166194E+00 2.239257712913E+03
 5.781735733806E+00 7.634327988736E+00 3.611972065403E+00 6.917310367747E-01 3.522908836737E+00 9.881941971391E+00 -1.933314387359E+00 -2.542819001478E+00 -6.533661196398E+00 1.359429536448E+01 -2.263618573232E+00 8.171044719967E+00 2.059087068896E+00 2.238650539656E+03
 -6.764241539738E+00 -8.988671278001E+00 -4.172484305296E+00 -8.121605707805E-01 -4.196169792772E+00 -1.180976469344E+01 2.267488863852E+00 2.948657842943E+00 7.805874549032E+00 -1.605968997802E+01 2.498500999876E+00 -9.667489102719E+00 -2.402800890620E+00 2.632710718148E+00 2.237709897658E+03
 -7.464393211202E-01 -7.851404485296E-01 -6.341500614201E-01 -7.700425538916E-02 -1.990569290945E-01 -4.180685831367E-01 2.377254139146E-01 3.877106647857E-01 2.901481183890E-01 -1.184210204431E+00 7.719622191392E-01 -6.968272380222E-01 -2.793646267482E-01 6.708480660459E-02 -1.256463858757E-01 2.240982057324E+03
 1.072009502504E+01 1.430829446045E+01 6.569326084280E+00 1.292092650728E+00 6.727515188948E+00 1.897748896427E+01 -3.593189730992E+00 -4.669880764062E+00 -1.253682890956E+01 2.564228967622E+01 -3.831563270754E+00 1.542305834306E+01 3.807567186202E+00 -4.235854727343E+00 5.045431519514E+00 2.346476518599E-01 2.232753612219E+03
 -2.711877402637E+00 -3.794446786966E+00 -1.521471630356E+00 -3.383202104226E-01 -1.923161379073E+00 -5.543776709362E+00 9.166279181080E-01 1.139355199317E+00 3.649204474802E+00 -6.991997019606E+00 5.652150078030E-01 -4.207116423076E+00 -9.538186101913E-01 1.257406443255E+00 -1.468236840393E+00 -1.792359829598E-01 2.318543710273E+00 2.240276229570E+03
 -1.106552127769E+01 -1.470710984680E+01 -6.834501467611E+00 -1.330061143365E+00 -6.864418702227E+00 -1.932158288960E+01 3.704726719374E+00 4.841179696500E+00 1.276787511186E+01 -2.629314607617E+01 4.107306516657E+00 -1.580735144968E+01 -3.935053310999E+00 4.304559836302E+00 -5.142724143700E+00 -1.957863604171E-01 8.256103240539E+00 -2.397992077829E+00 2.232436811720E+03
 -1.199276736017E-01 1.196323399424E-01 -3.006525930621E-01 3.558941800914E-03 2.795032525863E-01 9.784320245857E-01 2.679302290695E-02 1.236985072765E-01 -6.260821589062E-01 5.181069944204E-01 6.954399941976E-01 3.191176301275E-01 -5.866533296733E-02 -2.511455307084E-01 2.483101269267E-01 1.918540925228E-01 -3.439676109286E-01 -5.171361164013E-02 4.045755582101E-01 2.241072014162E+03
 -8.995832132489E+00 -1.189310899229E+01 -5.606561990608E+00 -1.077118198942E+00 -5.500685689117E+00 -1.543943747484E+01 3.009130808453E+00 3.950218515665E+00 1.020741479762E+01 -2.119219698869E+01 3.484244315719E+00 -1.274068483293E+01 -3.202265775945E+00 3.432398215591E+00 -4.111149794819E+00 -1.162764043249E-01 6.613893911340E+00 -1.955648772791E+00 -6.724906981370E+00 3.790537993260E-01 2.235480952620E+03
 -7.836583018823E+00 -1.069020252850E+01 -4.614129484801E+00 -9.592619677247E-01 -5.210582267652E+00 -1.485531862856E+01 2.638231398878E+00 3.353501016453E+00 9.797134155438E+00 -1.940761755812E+01 2.260852319944E+00 -1.168094776403E+01 -2.769837644276E+00 3.343083641762E+00 -3.938854889199E+00 -3.326834443809E-01 6.274070867945E+00 -1.673845731027E+00 -6.445651466121E+00 6.829169149086E-02 -5.208687619670E+00 2.236145526322E+03
 3.442368909616E+01 4.590350789001E+01 2.113008050244E+01 4.146420010488E+00 2.154895980717E+01 6.075836628623E+01 -1.153596269061E+01 -1.500761561584E+01 -4.014081759331E+01 8.221982888870E+01 -1.240414796740E+01 4.945036712870E+01 1.222935206769E+01 -1.355640786669E+01 1.615599739525E+01 7.232536013894E-01 -2.592018597228E+01 7.448794358250E+00 2.643564641768E+01 -1.138165805663E+00 2.116915059765E+01 2.012598687702E+01 2.157829733772E+03
 -4.467363392964E+00 -5.916134213930E+00 -2.776459960754E+00 -5.355774074682E-01 -2.744197566726E+00 -7.709473612661E+00 1.494698026616E+00 1.959692557602E+00 5.096100887076E+00 -1.055324044814E+01 1.707792770772E+00 -6.344255331240E+00 -1.589822004810E+00 1.715045786850E+00 -2.052759498608E+00 -6.432274448928E-02 3.299918116975E+00 -9.701450404843E-01 -3.357080290848E+00 1.803290445030E-01 -2.680367256982E+00 -2.591619674988E+00 1.056337263537E+01 2.239507387758E+03
 5.387033250427E+01 7.188694510818E+01 3.303142916480E+01 6.492864595128E+00 3.378572707344E+01 9.529636012406E+01 -1.805267770754E+01 -2.348341180683E+01 -6.295330848067E+01 1.288242368035E+02 -1.930660011620E+01 7.746952458175E+01 1.913771352609E+01 -2.126687477607E+01 2.534466231155E+01 1.160724432468E+00 -4.064208899313E+01 1.164975084792E+01 4.145638616534E+01 -1.740374445874E+00 3.320872727045E+01 3.152165000972E+01 -1.301731207475E+02 1.656907987310E+01 2.036745696591E+03
 2.339589075055E+00 2.548521788962E+00 1.910096432196E+00 2.462088442979E-01 7.368852772681E-01 1.688876567462E+00 -7.522494389338E-01 -1.182486820875E+00 -1.154721793554E+00 3.956254213699E+00 -2.199930152528E+00 2.345404298692E+00 8.680652600576E-01 -3.068897448051E-01 4.840344468735E-01 -3.586092177930E-01 -8.725696066490E-01 5.556447094434E-01 7.740972385010E-01 -5.313705654193E-01 5.090656048836E-01 1.085725010468E+00 -2.718511402062E+00 2.714149563577E-01 -4.340482039943E+00 2.241787482244E+03
 4.678678125211E+01 6.315784310667E+01 2.808909709262E+01 5.684349063321E+00 3.026430696505E+01 8.585523769582E+01 -1.571853890727E+01 -2.019193813048E+01 -5.666696078665E+01 1.139530001771E+02 -1.505273884360E+01 6.856735633049E+01 1.657505553118E+01 -1.924798002425E+01 2.279075294725E+01 1.523095817000E+00 -3.642370804563E+01 1.005491223863E+01 3.729920420311E+01 -9.366152621585E-01 3.001883340062E+01 2.773417712520E+01 -1.167580517155E+02 1.495548288711E+01 -1.829670145244E+02 -5.193105833034E+00 2.078464562777E+03
 -1.315232820187E+01 -1.699358367762E+01 -8.517011519797E+00 -1.549284959051E+00 -7.541742701415E+00 -2.089343307023E+01 4.380923017337E+00 5.875355590146E+00 1.384280261185E+01 -2.984744073492E+01 6.013598528190E+00 -1.793442968900E+01 -4.704338017505E+00 4.597396682556E+00 -5.580202991192E+00 1.039070871517E-01 9.056746079311E+00 -2.895736941414E+00 -9.131284741416E+00 8.674505839411E-01 -7.205025860519E+00 -7.419919424893E+00 2.893532367115E+01 -3.612404347983E+00 4.545650839080E+01 -1.818211513281E-02 4.199206464441E+01 2.231678663152E+03
 1.018267360538E+01 1.483194114662E+01 5.237411297063E+00 1.307708277439E+00 7.962041186099E+00 2.330492509177E+01 -3.470850064579E+00 -4.128235048800E+00 -1.530401122341E+01 2.793563512990E+01 -7.570243171225E-01 1.682587426658E+01 3.547858341575E+00 -5.345974174156E+00 6.149535591740E+00 1.079432814882E+00 -9.613462399286E+00 2.085635467314E+00 1.004261677859E+01 6.585571174875E-01 8.289682431628E+00 6.574560723349E+00 -3.095301265507E+01 4.096715506108E+00 -4.833050829576E+01 -3.218007222686E+00 -4.056269642602E+01 1.289828578546E+01 2.234163885403E+03
 1.897928697329E+01 2.608751414333E+01 1.102583447774E+01 2.337221339758E+00 1.286601641857E+01 3.680760274550E+01 -6.394101572026E+00 -8.089648150904E+00 -2.425850177815E+01 4.758382561387E+01 -5.042073377720E+00 2.862397543665E+01 6.701392700993E+00 -8.301747595810E+00 9.763499846387E+00 9.311566908544E-01 -1.549945178396E+01 4.032104572823E+00 1.595242585002E+01 -9.459337509206E-03 1.292928772841E+01 1.148266543992E+01 -4.974176467446E+01 6.426605637114E+00 -7.786286316341E+01 -2.987860089667E+00 -6.811935664578E+01 1.864618526129E+01 -1.552233451630E+01 2.212928878262E+03
 -1.342251493585E+01 -1.813190096432E+01 -8.047865042662E+00 -1.631585272870E+00 -8.698728011445E+00 -2.468510056751E+01 4.510048897045E+00 5.789143069968E+00 1.629207029588E+01 -3.272794995139E+01 4.288241955846E+00 -1.969360189636E+01 -4.754317848528E+00 5.535619747961E+00 -6.552034208037E+00 -4.461069404421E-01 1.046934150866E+01 -2.883587289514E+00 -1.072347802594E+01 2.586294554939E-01 -8.632779016737E+00 -7.962835480114E+00 3.356159923700E+01 -4.300500552423E+00 5.259134413051E+01 1.514955819961E+00 4.664631333084E+01 -1.209113677942E+01 1.161184231421E+01 1.955139101463E+01 2.227446745822E+03
 8.507573436041E-01 1.284802523805E+00 3.987342184386E-01 1.119262083349E-01 7.234216293348E-01 2.142889789720E+00 -2.931870388724E-01 -3.305440725814E-01 -1.405062380601E+00 2.463331900452E+00 4.740804807306E-02 1.488183907628E+00 2.931750576760E-01 -4.963298803971E-01 5.621186332306E-01 1.235387377640E-01 -8.742485832580E-01 1.704326453235E-01 9.213228019534E-01 9.144523540657E-02 7.671162611590E-01 5.718335132906E-01 -2.820004757699E+00 3.781496623455E-01 -4.399864607035E+00 -3.606181954582E-01 -3.607611948217E+00 1.236893182332E+00 -4.708918435396E-01 -1.329774917413E+00 1.030997628865E+00 2.240819915599E+03
 1.384767798981E+01 1.847472775589E+01 8.503842344342E+00 1.669851712888E+00 8.676422759122E+00 2.447054418624E+01 -4.636303947623E+00 -6.053466942312E+00 -1.616317078042E+01 3.311476198530E+01 -4.995505155846E+00 1.989602412448E+01 4.923634910010E+00 -5.457894822060E+00 6.518500941234E+00 2.852908592754E-01 -1.043913297973E+01 2.991813972818E+00 1.064182643284E+01 -4.511082218530E-01 8.525455626847E+00 8.101461745421E+00 -3.343374435406E+01 4.253214804048E+00 -5.240983130665E+01 -1.087668932272E+00 -4.701527697431E+01 1.166462310742E+01 -1.242167818228E+01 -1.999377068487E+01 1.351447821639E+01 -1.134639142809E+00 2.227406006278E+03
 1.925560610266E+01 2.607133498082E+01 1.150542653899E+01 2.345470271239E+00 1.255194775212E+01 3.565979030892E+01 -6.469225193913E+00 -8.304272300272E+00 -2.352882036601E+01 4.713368103698E+01 -6.033257073263E+00 2.834739894737E+01 6.820623243748E+00 -8.001084167053E+00 9.471971962513E+00 6.721703389279E-01 -1.511041649141E+01 4.128222218297E+00 1.548311925970E+01 -3.238971093781E-01 1.247729036925E+01 1.145356543795E+01 -4.844583706813E+01 6.213338223547E+00 -7.589483519659E+01 -2.270644537651E+00 -6.720743906053E+01 1.754755207392E+01 -1.653102602276E+01 -2.806990062992E+01 1.930379069961E+01 -1.463933474929E+00 -1.948723326719E+01 2.213061447900E+03
 -6.625150435864E+00 -8.964485773873E+00 -3.960142712802E+00 -8.063065260107E-01 -4.312563619774E+00 -1.224743535066E+01 2.226701879890E+00 2.853291450736E+00 8.082298170145E+00 -1.619643221836E+01 2.081668214930E+00 -9.746552519745E+00 -2.345691335760E+00 2.748096044662E+00 -3.249970821309E+00 -2.307980027569E-01 5.190654764335E+00 -1.422097365368E+00 -5.319495227105E+00 1.159483028522E-01 -4.285198638764E+00 -3.937625367872E+00 1.664150738501E+01 -2.134262250730E+00 2.607523129149E+01 7.768634615731E-01 2.309524605233E+01 -6.019368287568E+00 5.701999211706E+00 9.660451008099E+00 -6.633782270347E+00 5.041468355748E-01 6.701106425507E+00 9.554605382210E+00 2.237562292186E+03
 8.262486605759E+00 1.100332724693E+01 5.082098868297E+00 9.941743495931E-01 5.154385118172E+00 1.452246675428E+01 -2.768640296907E+00 -3.603244289854E+00 -9.595968705509E+00 1.969060974802E+01 -3.007750034974E+00 1.184505805242E+01 2.935471415830E+00 -3.238832312554E+00 3.860539527156E+00 1.652300812955E-01 -6.199106774720E+00 1.789892428547E+00 6.320480236336E+00 -2.848151622980E-01 5.058220278161E+00 4.823302611153E+00 -1.985251838256E+01 2.524584186162E+00 -3.113371491081E+01 -6.275461781573E-01 -2.795411209078E+01 6.895327543478E+00 -7.459403607614E+00 -1.193284059976E+01 8.035922886500E+00 -6.802870980922E-01 -7.999083301960E+00 -1.160492747029E+01 3.985459012168E+00 2.236099405641E+03
 3.863038393835E+01 5.372007098652E+01 2.185528243711E+01 4.787811194552E+00 2.700222140832E+01 7.763285496662E+01 -1.307894127001E+01 -1.617007559552E+01 -5.114574628997E+01 9.853807746495E+01 -8.615936476125E+00 5.944447858938E+01 1.357028990371E+01 -1.759834914382E+01 2.047984030917E+01 2.415129785973E+00 -3.252694474443E+01 8.177494225836E+00 3.363670782971E+01 4.774077957129E-01 2.735938023210E+01 2.367316846146E+01 -1.044738031533E+02 1.358666658748E+01 -1.635517601063E+02 -7.455868917875E+00 -1.416124959538E+02 4.015354321413E+01 -3.045773839046E+01 -5.738939410532E+01 4.061933864676E+01 -2.503996596354E+00 -4.216059993982E+01 -5.835438618356E+01 2.004177687868E+01 -2.506403376562E+01 2.125296342991E+03
 -6.057989030370E+01 -8.407225777932E+01 -3.449211062277E+01 -7.506280791958E+00 -4.210164313582E+01 -1.209479970709E+02 2.046862668504E+01 2.553528170092E+01 7.967213328080E+01 -1.541348763993E+02 1.410243856716E+01 -9.283137931710E+01 -2.132396619294E+01 2.737851509156E+01 -3.199839429148E+01 -3.582550267760E+00 5.072909114334E+01 -1.281222639878E+01 -5.238334116025E+01 -6.098597750107E-01 -4.259197218358E+01 -3.704568192431E+01 1.629066478453E+02 -2.115090814002E+01 2.549502719672E+02 1.119324524412E+01 2.212771876485E+02 -6.232898575968E+01 4.801532813468E+01 8.972879512055E+01 -6.347910962895E+01 3.998088875314E+00 6.556987508480E+01 9.108645821080E+01 -3.132997533823E+01 3.909885790730E+01 1.822571946036E+02 1.954730809422E+03
 -8.387468800772E+00 -1.129348852831E+01 -5.065044283784E+00 -1.017846566271E+00 -5.386846261188E+00 -1.526353787067E+01 2.814028800411E+00 3.637538623231E+00 1.007472950355E+01 -2.035328114006E+01 2.780443337516E+00 -1.223476722086E+01 -2.975668712196E+00 3.417116134203E+00 -4.059624750874E+00 -2.463132530818E-01 6.483832176334E+00 -1.803000112773E+00 -6.630667415110E+00 1.909451549533E-01 -5.332010604885E+00 -4.958164293528E+00 2.077982400372E+01 -2.656925422652E+00 3.255990745050E+01 8.622526982251E-01 2.897350279616E+01 -7.424629759493E+00 7.322121339881E+00 1.218071045484E+01 -8.324258245491E+00 6.570649034579E-01 8.354609028475E+00 1.198793323203E+01 -4.122702878865E+00 4.975444198742E+00 2.547384298791E+01 -3.969359251046E+01 2.235686208238E+03
 2.309726936119E+01 3.068004432064E+01 1.427594125843E+01 2.774475234916E+00 1.430624705047E+01 4.025615271295E+01 -7.734304062674E+00 -1.010209047842E+01 -2.660416253695E+01 5.482360622397E+01 -8.604775118269E+00 3.296815525664E+01 8.212898830878E+00 -8.967713107470E+00 1.071056888222E+01 4.007294938866E-01 -1.720528116720E+01 5.008478264370E+00 1.752378168627E+01 -8.587485092551E-01 1.400923245698E+01 1.344474317857E+01 -5.508885207686E+01 6.994314905796E+00 -8.639938919262E+01 -1.589990464179E+00 -7.776558949161E+01 1.899925622876E+01 -2.100391963996E+01 -3.329469970979E+01 2.235783290330E+01 -1.927809842040E+00 -2.218716064348E+01 -3.229278770901E+01 1.109118530241E+01 -1.316853924743E+01 -7.015933350646E+01 1.093266830149E+02 1.382878381637E+01 2.204333973055E+03
 -3.968598334694E+01 -5.430952964715E+01 -2.324090121199E+01 -4.870560508344E+00 -2.660130978881E+01 -7.595195713932E+01 1.336297485477E+01 1.696223104396E+01 5.007514659599E+01 -9.879742275086E+01 1.108101815181E+01 -5.944203239770E+01 -1.402295129685E+01 1.710755991949E+01 -2.014684927667E+01 -1.789477247564E+00 3.203832881189E+01 -8.455957547680E+00 -3.293732127090E+01 2.095679850093E-01 -2.665057738824E+01 -2.389114177858E+01 1.027919179673E+02 -1.325428843222E+01 1.609508803592E+02 5.802185790531E+00 1.412832802609E+02 -3.816445383371E+01 3.294066071567E+01 5.823552586122E+01 -4.055849131912E+01 2.849457589540E+00 4.134235587334E+01 5.828512210206E+01 -2.004921751310E+01 2.464598179841E+01 1.199875965018E+02 -1.876284643702E+02 -2.525515919032E+01 6.872496711701E+01 2.119539633609E+03
 2.910124406011E+01 3.917775419938E+01 1.757195466774E+01 3.530393544779E+00 1.868472719738E+01 5.293755400323E+01 -9.765969956671E+00 -1.261072903710E+01 -3.494387300541E+01 7.059105468161E+01 -9.645120417816E+00 4.244628525945E+01 1.032181754006E+01 -1.185238729553E+01 1.407248425534E+01 8.578512747412E-01 -2.248789827174E+01 6.258811361865E+00 2.300010587722E+01 -6.673247583554E-01 1.849304273816E+01 1.719918852965E+01 -7.207079520793E+01 9.215632917362E+00 -1.129373967054E+02 -2.994199910072E+00 -1.004946575221E+02 2.574276390974E+01 -2.542418538122E+01 -4.227204426424E+01 2.887281544518E+01 -2.279269360768E+00 -2.899179034424E+01 -4.159325659143E+01 1.430001158745E+01 -1.725437967137E+01 -8.830239197895E+01 1.376989394892E+02 1.790481309073E+01 -4.796134196741E+01 8.762865904970E+01 2.178725877246E+03
 -2.623460443788E+01 -3.517889229223E+01 -1.594545415697E+01 -3.172663855860E+00 -1.667016605938E+01 -4.713585828471E+01 8.800837728958E+00 1.138890079526E+01 3.112647767235E+01 -6.322397545879E+01 8.999198051680E+00 -3.802936604303E+01 -9.309240898316E+00 1.053978020406E+01 -1.252627495240E+01 -6.861369005535E-01 2.005740151152E+01 -5.658418122506E+00 -2.049339716972E+01 7.122274440593E-01 -1.644932171629E+01 -1.543505145847E+01 6.426472565341E+01 -8.201982764847E+00 1.007378436235E+02 2.448185701825E+00 8.992165592960E+01 -2.272839028176E+01 2.320404841067E+01 3.803472439445E+01 -2.584011782678E+01 2.092605155068E+00 2.587495480373E+01 3.726409162052E+01 -1.280406783072E+01 1.537710596757E+01 7.955023406255E+01 -1.241253812122E+02 -1.601982617803E+01 4.271782440494E+01 -7.873394222319E+01 5.556602275063E+01 2.191215478907E+03
 1.251895559874E+01 1.671021348119E+01 7.670181024123E+00 1.508931520080E+00 7.858012059976E+00 2.216651613648E+01 -4.196308542905E+00 -5.451815778852E+00 -1.464373757034E+01 2.994668616003E+01 -4.470491035688E+00 1.801339641594E+01 4.446038858948E+00 -4.947861121728E+00 5.892338806242E+00 2.756755647368E-01 -9.452118572612E+00 2.707933419080E+00 9.643845858700E+00 -4.010155487524E-01 7.725690421788E+00 7.327219519285E+00 -3.027512724196E+01 3.854639929698E+00 -4.747126074083E+01 -1.022548238795E+00 -4.254002374464E+01 1.058003158118E+01 -1.122519357469E+01 -1.810268907999E+01 1.222744631502E+01 -1.020014064782E+00 -1.219477757462E+01 -1.764904168531E+01 6.062510545632E+00 -7.240755523778E+00 -3.797564523581E+01 5.923921744751E+01 7.573412000512E+00 -2.009618371028E+01 3.741778595010E+01 -2.626619592224E+01 2.342670056343E+01 2.229805771090E+03
 2.878590843978E+00 3.593155550602E+00 1.961960550483E+00 3.304219592101E-01 1.492042299985E+00 4.039647951989E+00 -9.547747602066E-01 -1.310559518015E+00 -2.687815193729E+00 6.163832113771E+00 -1.599537184498E+00 3.708591765630E+00 1.034990953288E+00 -8.736995620138E-01 1.079984504277E+00 -1.056193840425E-01 -1.786986275815E+00 6.469097319848E-01 1.777869770266E+00 -2.897942015560E-01 1.374592673054E+00 1.561169039859E+00 -5.691884423726E+00 6.939285557677E-01 -8.969493600992E+00 2.384994324217E-01 -8.583018808335E+00 1.572237742841E+00 -3.076543755125E+00 -4.007399911135E+00 2.476224834937E+00 -3.065011998916E-01 -2.308153596335E+00 -3.625160557166E+00 1.238412973640E+00 -1.348694682853E+00 -8.783078350764E+00 1.364488445500E+01 1.511556810870E+00 -3.687300081710E+00 8.107574223344E+00 -5.232128613902E+00 4.554988409715E+00 -2.087109390354E+00 2.240645135279E+03
 2.751254569420E+00 3.611034250833E+00 1.740865149331E+00 3.282504805304E-01 1.647284116307E+00 4.605966651322E+00 -9.171252815303E-01 -1.223019763456E+00 -3.045776050990E+00 6.411832899008E+00 -1.138571071450E+00 3.845098189123E+00 9.829368096326E-01 -1.019546677885E+00 1.232874223577E+00 1.198117961937E-02 -1.981042057366E+00 5.987880397504E-01 2.006220153048E+00 -1.369330839575E-01 1.596043708245E+00 1.580399324733E+00 -6.336599881348E+00 7.979285476006E-01 -9.938582152106E+00 -9.457076965618E-02 -9.055868122857E+00 2.109708940529E+00 -2.582169714302E+00 -3.927411049202E+00 2.605401416485E+00 -2.438389435545E-01 -2.541909835424E+00 -3.762096771254E+00 1.294446678368E+00 -1.514118761224E+00 -8.437417323552E+00 1.304655551001E+01 1.600426267889E+00 -4.182561987481E+00 8.086156041582E+00 -5.556690240648E+00 4.939606485638E+00 -2.314681395336E+00 -3.950537629405E-01 2.240378163845E+03
 -1.387620695266E+01 -1.844052141345E+01 -8.569134535530E+00 -1.667324530441E+00 -8.605929949357E+00 -2.422255637152E+01 4.647251210940E+00 6.066451266006E+00 1.600739831454E+01 -3.296162063594E+01 5.148283061936E+00 -1.982229613284E+01 -4.933516552959E+00 5.397181978474E+00 -6.444028449934E+00 -2.470387534135E-01 1.035011926985E+01 -3.008124997480E+00 -1.054359371998E+01 5.088375892097E-01 -8.430661980036E+00 -8.081614261700E+00 3.314088154723E+01 -4.208877850256E+00 5.197599352313E+01 9.727506120102E-01 4.676160122963E+01 -1.144500081711E+01 1.260186855601E+01 2.000865653804E+01 -1.344363591026E+01 1.155882458729E+00 1.334792973374E+01 1.941640047728E+01 -6.668470357431E+00 7.922144014609E+00 4.214235866165E+01 -6.567781726161E+01 -8.316736231668E+00 2.196893880107E+01 -4.130690893684E+01 2.884382679095E+01 -2.569336858628E+01 1.208888018054E+01 2.224903213993E+00 2.518213689433E+00 2.227627745660E+03
 3.002570865138E+01 4.118676478858E+01 1.748619199820E+01 3.689120145997E+00 2.025532511528E+01 5.789293689342E+01 -1.012263083157E+01 -1.277738155686E+01 -3.816730356250E+01 7.500448551313E+01 -8.112472158606E+00 4.516404481835E+01 1.059618527162E+01 -1.305542356587E+01 1.533263645680E+01 1.441400401916E+00 -2.439368013942E+01 6.395060078709E+00 2.510666332738E+01 -8.075973884362E-02 2.032897069509E+01 1.812223247801E+01 -7.827919828621E+01 1.010868052685E+01 -1.225784530410E+02 -4.616819916191E+00 -1.073536281424E+02 2.922185515333E+01 -2.475083722570E+01 -4.415998675579E+01 3.081398209606E+01 -2.122511781666E+00 -3.152231788611E+01 -4.429726103390E+01 1.522766881465E+01 -1.876730585070E+01 -9.051224162963E+01 1.418776729942E+02 1.922076305425E+01 -5.237359272565E+01 9.201924596926E+01 -6.666718507541E+01 5.990597912617E+01 -2.848651519096E+01 -6.227462370933E+00 -6.193472388172E+00 3.147534810282E+01 2.171138879260E+03
 1.260664469961E+01 1.792400442068E+01 6.834065746656E+00 1.590124456552E+00 9.303430344695E+00 2.699029692989E+01 -4.278344133101E+00 -5.211868871275E+00 -1.775046915308E+01 3.331462242351E+01 -1.945258146197E+00 2.006685698703E+01 4.414771006170E+00 -6.153016051844E+00 7.129704746749E+00 1.038690394106E+00 -1.122172858691E+01 2.625096459895E+00 1.165901009389E+01 4.670870082060E-01 9.555581286228E+00 7.921789563651E+00 -3.608617586806E+01 4.733124713342E+00 -5.640829684335E+01 -3.149195190036E+00 -4.810866829995E+01 1.445272168744E+01 -9.143167374489E+00 -1.894388117172E+01 1.378622166219E+01 -7.083577476749E-01 -1.450426904578E+01 -1.970350096225E+01 6.786572083704E+00 -8.679514434668E+00 -3.780760222383E+01 5.949042188134E+01 8.658988214124E+00 -2.435895648469E+01 3.990568959386E+01 -3.005167712084E+01 2.726287780347E+01 -1.310371664107E+01 -3.317706382977E+00 -2.954064015810E+00 1.462346420021E+01 -3.007522403162E+01 2.228990050060E+03
 2.963283816115E+01 4.075106609171E+01 1.718450117888E+01 3.648812897902E+00 2.011791159639E+01 5.756554816591E+01 -9.990257564712E+00 -1.260178138332E+01 -3.794174145082E+01 7.433349870797E+01 -7.791666598976E+00 4.474218602581E+01 1.045602325873E+01 -1.298957173410E+01 1.525363067175E+01 1.482894973955E+00 -2.423308795701E+01 6.298390663819E+00 2.495328258414E+01 1.654164708740E-03 2.022545152934E+01 1.793696683372E+01 -7.777467936249E+01 1.005354458641E+01 -1.217591952499E+02 -4.733423008908E+00 -1.064481830309E+02 2.919030858573E+01 -2.421141061430E+01 -4.362870983271E+01 3.055105484508E+01 -2.066781314638E+00 -3.129254903999E+01 -4.388316432280E+01 1.509412953635E+01 -1.865435734820E+01 -8.942056899329E+01 1.400437788818E+02 1.905348421824E+01 -5.206851352593E+01 9.099864232690E+01 -6.610418699475E+01 5.946063577909E+01 -2.830087960862E+01 -6.268248211557E+00 -6.158952255438E+00 3.128963942420E+01 -6.894619341838E+01 -2.955461138944E+01 2.172704854807E+03
 2.917756913718E-01 1.533483573359E-01 3.763585920408E-01 2.061103074435E-02 -1.182862370398E-01 -4.933730850433E-01 -8.410265580953E-02 -1.972416365437E-01 3.103802645277E-01 2.589952278832E-02 -6.690986208088E-01 -1.588965587702E-03 1.196543429783E-01 1.393058807548E-01 -1.148671235770E-01 -1.640951619280E-01 1.475006361523E-01 8.280574158917E-02 -1.992505338016E-01 -1.969619516122E-01 -2.050169786867E-01 5.436190538286E-02 5.039810756174E-01 -9.522191182316E-02 7.602988682572E-01 4.453067692293E-01 1.413903553480E-01 -5.745557319448E-01 -7.206315988366E-01 -2.559628038766E-01 -3.152156362897E-02 -9.443739725397E-02 2.097538539975E-01 1.384934720822E-02 -5.196208952153E-03 1.295666890523E-01 -1.052838382290E+00 1.436414628017E+00 -5.265234529389E-02 4.228375975325E-01 3.790040823428E-01 1.790485646657E-01 -2.484035965789E-01 1.708825068686E-01 2.083274343841E-01 8.671318466605E-02 -2.473868266870E-01 -3.767090299431E-01 -5.931107537395E-01 -4.305698333396E-01 2.241021874020E+03
 1.380263535020E+01 1.798190958215E+01 8.817743336714E+00 1.635427908279E+00 8.102565039793E+00 2.255700324336E+01 -4.604618274085E+00 -6.127757523882E+00 -1.493308586151E+01 3.174919125410E+01 -5.965129960427E+00 1.908156716983E+01 4.928353752220E+00 -4.982781322735E+00 6.017321105861E+00 -5.880386999245E-03 -9.734642963865E+00 3.025364844780E+00 9.846005388450E+00 -7.928104299126E-01 7.801229120140E+00 7.860078934506E+00 -3.112227133547E+01 3.906087090380E+00 -4.886658415933E+01 -2.677330866727E-01 -4.477993249792E+01 1.013366734173E+01 -1.324429938842E+01 -1.966528673850E+01 1.288795256158E+01 -1.254622153642E+00 -1.254239872097E+01 -1.867643649453E+01 6.409227792065E+00 -7.423871610169E+00 -4.207737116306E+01 6.538808605221E+01 7.931313467393E+00 -2.049523529101E+01 4.035235929129E+01 -2.750231992640E+01 2.434813933566E+01 -1.137159942749E+01 -1.813827056922E+00 -2.298339621323E+00 1.234151138282E+01 -3.085363504320E+01 -1.498651453609E+01 -3.077640042010E+01 4.994735314242E-01 2.229733921738E+03
 6.474523294802E+00 8.946470060635E+00 3.724086210374E+00 8.005182928123E-01 4.448671474387E+00 1.275583918019E+01 -2.182846327475E+00 -2.749013608867E+00 -8.403607358000E+00 1.636894166003E+01 -1.612530262087E+00 9.846085846194E+00 2.283675098485E+00 -2.881636426475E+00 3.382638450863E+00 3.496008242732E-01 -5.360475341879E+00 1.371052036067E+00 5.524955039290E+00 3.395285472251E-02 4.486597265333E+00 3.940441971095E+00 -1.720855999606E+01 2.228686144950E+00 -2.692915225116E+01 -1.108503615923E+00 -2.346446106565E+01 6.523103320616E+00 -5.200946791332E+00 -9.552861441629E+00 6.733246797504E+00 -4.395092732726E-01 -6.913955927227E+00 -9.657452179767E+00 3.325359484788E+00 -4.130899907554E+00 -1.957074756155E+01 3.060648776547E+01 4.198224678831E+00 -1.153393842491E+01 1.995907138232E+01 -1.457207430555E+01 1.313195829338E+01 -6.261262266323E+00 -1.419641534810E+00 -1.365287301937E+00 6.929920398138E+00 -1.512560966449E+01 -6.404911661313E+00 -1.492887627796E+01 -1.187711003386E-01 -6.859702780925E+00 2.237582967937E+03
 -3.912544523026E+01 -5.342834595547E+01 -2.298877302783E+01 -4.792638824921E+00 -2.608662532481E+01 -7.440703091876E+01 1.317527596027E+01 1.672355384244E+01 4.906878926461E+01 -9.705209827813E+01 1.115085937447E+01 -5.841976964409E+01 -1.382432621739E+01 1.675139063736E+01 -1.972343411778E+01 -1.703155976557E+00 3.141152931684E+01 -8.353124831830E+00 -3.228235046843E+01 2.968402568923E-01 -2.609696798913E+01 -2.349572762295E+01 1.007690471581E+02 -1.298325754257E+01 1.578213124503E+02 5.534731825188E+00 1.387344239926E+02 -3.723947603909E+01 3.271706723935E+01 5.737171969212E+01 -3.983058522993E+01 2.836995306754E+00 4.056836802641E+01 5.728687877274E+01 -1.969434848365E+01 2.415200066748E+01 1.181352283583E+02 -1.849393370408E+02 -2.480985542058E+01 6.733592984316E+01 -1.193995936005E+02 8.605973382215E+01 -7.725040799218E+01 3.668426804394E+01 7.853513326897E+00 7.924902819374E+00 -4.047341273176E+01 9.054277772668E+01 3.948316090207E+01 8.960833716889E+01 3.133075237443E-01 3.942396880037E+01 1.968206692468E+01 2.123412685540E+03