#BIOSYM hessian 1
@Type: Hessian Update
@Units
 distance: 	A
 energy: 	Kcal/Mol
#header
@natom 19

#label
L1      L2      L3      L4      L5      L6      L7      L8      L9      L10     L11     L12     L13     L14     L15     L16     L17     L18     L19

#element
Li Li Li Li Li Li Li Li Li Li Li Li Li Li Li Li Li Li Li

#matrix
57
 1.971802274016E+01
 3.372030018137E+00 2.760160581829E+01
 6.800854603349E+00 3.341340765281E+00 1.845155373913E+01
 -1.762040278146E+00 4.015375031378E+00 4.436721070619E-01 2.299646102788E+01
 5.059444725727E+00 -1.360135511234E+01 -2.294945462937E+00 -1.122757023770E+01 4.241336449604E+01
 -3.520446943837E-01 -3.890047492583E+00 -1.509223710839E+00 -8.087239312588E-01 4.350105733934E+00 4.306109036603E+01
 2.034433399841E-01 -9.141245945032E-01 1.303110835808E+00 -3.123138410483E+00 5.524366031281E+00 -2.147088730635E+00 2.262490157674E+01
 -4.781820117221E-01 1.713715279781E+00 -7.859164322759E-01 4.702494341984E+00 -8.143838562219E+00 6.842123078745E+00 -8.040757021105E+00 1.473846593016E+01
 6.792576746619E-01 -1.469514347809E-01 5.024813775362E-01 -3.968872811697E+00 6.026583155340E+00 -8.068705005644E+00 8.374436749793E+00 -3.339488467982E+00 1.704110413563E+01
 1.078340552574E-01 2.569335640686E-01 -1.885852868202E+00 5.644795170059E-01 -4.494362329322E-01 1.778026685691E+00 -5.689084208477E-01 3.039335342496E-01 8.650480984303E-02 2.417433946381E+01
 -2.261381006515E-01 1.257200728644E+00 1.765321515217E-01 9.849544857282E-02 -1.379276117670E+00 2.022169268792E-01 -8.621713993855E-01 4.418394639492E-01 6.769935900952E-01 2.415628254996E+00 1.064077237766E+01
 -8.618310308376E-01 3.570443050742E-02 1.431141284726E+00 -4.956105517000E-01 -1.142639776976E+00 -9.873893020362E-02 -6.538645432762E-01 1.489440084546E-01 2.344843936636E-01 -5.073298209647E+00 -2.098379089095E+00 2.792782752182E+01
 -1.581686330816E+00 2.700968179735E+00 -4.045650422221E+00 -3.590194253196E+00 -1.304173228916E+00 -7.115477464638E-01 1.692319172910E+00 2.568744945242E-01 -9.818593408952E-01 -9.017692829260E-01 -5.141638617754E-01 1.960044019974E+00 3.761019950382E+01
 -9.680438158253E-02 -3.676186961938E+00 -5.064406092882E+00 3.127313432674E+00 -1.635296103713E+00 1.173836526028E+00 -2.674748327079E+00 1.079246354170E-01 1.208411319770E+00 2.477547617039E+00 4.565731073857E-01 1.383243569352E+00 -7.433199762832E+00 3.811726438146E+01
 -1.549321620912E+00 -5.539593433950E+00 -1.020987644766E+01 -2.627343635996E+00 1.890599539721E+00 -3.145716503712E+00 -1.741619597269E+00 4.499952439060E-01 -9.042905548037E-01 1.646051807030E+00 -2.143999718192E-01 -1.074684300466E+00 -6.418526309058E+00 1.134957481871E+01 3.515769288071E+01
 1.643443427870E-01 1.954867418248E+00 3.600895178008E-01 1.130665485965E-02 -2.394809649233E+00 2.671708202932E-01 -6.716447292136E-01 1.926128080936E-01 -2.587538041431E+00 2.595302241961E-01 1.659873340308E-01 1.482220356787E-01 8.032708869986E-01 -3.144214247727E-01 -1.641007194415E+00 2.902315966232E+01
 7.844384422053E-01 -4.743873979135E-01 -6.780490107304E-01 9.727180715694E-01 -1.322736105359E+01 -5.278585344306E+00 -2.298332325830E+00 -1.125656084770E+00 -1.199910437658E+00 -9.774473729963E-03 1.171327178356E-01 -2.888731988171E-02 2.784116190055E-01 7.209787159868E-01 -3.582129805361E-01 -4.050347902448E+00 2.770761997967E+01
 2.840228299862E-01 -3.763602934603E-01 2.537882539168E-01 5.675750271440E-01 -1.373852472700E+00 -9.826349665990E-01 -2.560582838898E+00 -2.264658151728E+00 -7.222686114130E+00 1.696960944872E+00 -1.868636201484E+00 -6.116622121711E-01 1.693078138519E-01 -1.438593167091E-01 1.390422049214E+00 -8.428097805367E-01 1.495484260303E+00 2.588718563373E+01
 -8.863650546565E-01 3.246246168793E-01 -6.178908429261E-01 -1.087766008212E+00 -3.504512118237E+00 9.292936685683E-01 -1.431811593280E+01 -1.114414549344E+00 -3.230408768758E+00 -8.563969234326E+00 2.549492034273E+00 5.575569244779E+00 5.108349899241E-01 1.931573385317E+00 1.343557129282E+00 -7.893048132940E+00 3.734944290455E+00 5.178035546012E+00 4.158583690066E+01
 2.407323156785E-01 -1.061982959434E+00 7.433628051531E-01 -1.759321346743E+00 -5.593134628146E+00 1.254452090752E+00 4.867724004812E-01 -1.222393660164E+00 -9.227809186533E-01 2.690505927792E+00 -2.155744751943E+00 -1.872437668610E+00 4.166911329785E-01 1.019570265493E+00 -2.763900319395E-01 2.453668123273E+00 9.146932026072E-01 -3.341146484093E-01 2.931904719004E-01 2.906967568884E+01
 -9.170628902210E-01 7.010437504981E-01 -2.405466790567E+00 2.967223080665E+00 -1.388420295394E+00 -9.000341178092E-01 -5.722812933583E+00 -1.023075563393E+00 -2.477283331316E+00 5.836889953305E+00 -2.997283727210E+00 -1.447823190944E+00 3.928745517386E-01 2.559063799463E+00 1.636158725298E+00 7.114381943957E+00 -1.027742107449E+00 -5.963706018055E+00 2.899917301137E+00 1.140481273922E+01 3.485875772583E+01
 -2.193308994824E-01 -5.072832487623E-01 -1.536019014182E+00 -2.308228637245E-01 6.005771334571E-01 -5.401858215852E-01 6.442616685826E-02 1.383824604521E-01 5.749964133459E-01 -1.560488502241E+00 1.754559445698E+00 -2.479242991551E+00 1.932317285022E+00 -3.170464206435E-01 9.720297761607E-01 -2.154501897180E+00 1.568977095415E-01 7.082023155265E-01 2.057664723553E-01 -1.626368684822E+00 -8.129449645593E-01 2.466075026371E+01
 -6.244937902971E-01 -4.970870790100E-02 1.054223282409E+00 -4.647872060014E-01 1.511573897234E-01 5.422546902585E-01 5.139176285783E-01 -1.130179135516E-01 9.956129686538E-01 1.849390346787E-01 -2.383745295017E+00 2.188233226618E+00 -2.312359841820E+00 -1.901250502910E+00 -5.517908359470E-01 1.270307498328E+00 -1.743747454998E+00 -1.480911510059E+00 2.184390665430E-01 -5.430803112723E-01 -1.051569238386E+00 -5.964809383563E+00 1.798927292504E+01
 6.958275558495E-01 1.041636094653E+00 -3.056183283883E-01 5.599507956937E-01 -1.251072534382E+00 -1.198318953117E+00 6.781644616580E-01 -2.477148582423E-01 3.682855052515E-01 -3.290802523722E+00 4.347428902750E+00 -2.734579964467E+00 -8.121973647902E-01 -1.946741136468E-01 -8.464013863405E-02 -1.275903962035E-02 5.986442849096E-01 -1.471153269443E+00 -1.615879874414E+00 1.155496968649E+00 2.927797941828E-01 -6.728251507623E+00 -1.618230512526E+00 1.676912824820E+01
 4.042566246498E-01 -8.138848068064E-01 -8.269934144059E-01 -4.156477177068E-01 1.268513773999E+00 3.988728456759E-01 -1.462056601749E-01 -4.296368378917E-01 5.576971934950E-01 -6.235819866341E-01 -2.278907017016E-01 -6.584361525858E-01 -6.352126309313E+00 5.923272345328E+00 3.593508680732E+00 -1.059065014566E+00 -1.520858713921E+00 6.863233433609E-01 9.701073630718E-01 -2.360914566032E-01 1.907048869707E-01 3.649063864910E-01 -6.586026668956E-01 4.011851354312E-02 2.510352869902E+01
 1.451475181034E-01 2.087239755406E+00 1.160343596895E+00 -1.242869917702E+00 7.737755091393E-02 -1.814934532135E+00 1.241093384232E+00 -8.247274699059E-01 2.056159075147E-01 2.032936842705E-01 -1.594784490611E+00 -8.824769211076E-01 8.967205449515E+00 -8.572967286730E+00 -3.371888206971E+00 -4.201184837340E+00 -6.070432113442E+00 4.991193581900E+00 -2.553700376563E-01 -4.384734118953E-01 -1.446832048762E+00 8.857210982880E-01 -4.763766792687E-01 -8.534746890431E-01 2.430780029969E+00 2.410456594921E+01
 -1.277945760907E+00 4.920981666374E-01 5.005614014479E-01 7.617368561561E-01 -1.833092872667E+00 -1.047883905031E+01 3.781035315674E-01 1.092464825610E-01 1.612733350246E+00 -1.783772342304E+00 -1.692973432480E-01 9.458150826784E-02 2.787926671066E+00 -3.575725386105E+00 -1.597272961296E+00 2.132863495861E+00 3.321976847054E+00 -4.274879052903E+00 1.527405332224E+00 3.500125423106E-01 2.639615232293E-01 8.294098485786E-01 -3.050664566959E-01 -2.993527884095E-01 -5.939318759142E+00 -1.849116431561E+00 2.126871149773E+01
 5.214700478048E-02 8.171629057869E-02 7.531319919037E-01 2.433441580468E-01 4.924466202917E-01 -9.383868198121E-01 5.199915882387E-01 -3.210149985351E-01 7.459837362141E-01 -9.670334731469E-01 -4.360504617366E-01 -6.557594865447E-01 -2.100498745220E-01 -5.812315257456E-01 -3.238120659798E-01 -7.067457239243E+00 -3.774738963237E+00 -7.245736310966E-01 -1.425912078317E+00 -2.811599321092E+00 -1.385101455127E+00 1.403830462796E+00 7.355834728622E-01 -1.663061401455E-01 6.556625991886E-01 2.532586187444E-01 -4.448880091688E-01 2.038119866116E+01
 -6.362136283138E-01 -2.061204888619E+00 -5.928301159370E-01 -1.425512166886E+00 4.966680892636E-01 -5.199522279874E-01 -3.883542117040E-01 -3.036496946588E-01 -1.039351308495E+00 -7.966320606957E-01 4.362091104758E-01 1.563378970613E+00 7.050248956407E-01 -1.313548058249E+00 -5.114849885436E-01 -2.739334176640E+00 -1.173852496145E+00 8.017484434413E-01 -2.508054592297E+00 -7.806767478488E+00 -4.742080878394E+00 8.285996776938E-01 6.092260819300E-01 -4.111769654758E-01 -1.565335037400E+00 1.697412886877E+00 -5.156417916546E-01 1.088096938103E+00 3.319293169808E+01
 5.861899342246E-01 -4.255226159646E-01 4.928754275946E-01 -1.830838584788E-01 5.922400700830E-01 1.431486476461E+00 1.532514611153E+00 6.638756656842E-01 -1.574107895688E-01 -4.651808144436E-01 1.392571718615E+00 8.950283197606E-01 -1.719078712517E+00 -3.433130854877E-01 2.210303515176E-02 1.165274341116E+00 -1.237457124338E+00 -1.109748137255E+00 -2.503024732001E+00 -4.473865387908E+00 -5.591089248515E+00 -5.350870161187E-01 -3.836268366523E-01 -3.630579211829E-02 -9.961121266866E-02 -9.692548860325E-01 4.886767282930E-01 -9.907718110106E-01 -1.751565439032E+00 1.886636385908E+01
 8.094337718142E-01 -2.826164168261E+00 1.756351972891E+00 -4.578548778032E-01 7.389277063812E-01 1.227969890539E+00 6.050124303200E-01 1.375217384191E+00 -6.214670328864E-01 -6.673792457947E-01 -1.959949715929E-01 -1.623562442167E+00 -2.538735585299E+00 -2.346513138244E+00 -8.131285576516E-01 9.471657306384E-01 -5.715074751973E-01 -5.098947916782E-01 -7.396495598855E+00 -9.262586977578E-01 -4.768587668992E+00 -3.500421299200E+00 5.988940640070E+00 1.967567570430E+00 -6.972018185338E-01 -2.282333381349E-01 -7.097339614491E-01 -5.043147701915E+00 6.297923026656E+00 3.205317509189E+00 2.410638129355E+01
 -1.600877927403E+00 1.599291146806E-01 -2.352233201080E+00 2.108215491910E+00 -2.481950942837E+00 -1.952186551808E+00 -2.911860153493E-02 -1.368558183265E-02 -7.922130256222E-01 1.329189749977E+00 -1.754087852592E+00 -4.024736198694E+00 9.372528040413E-01 2.218073206583E+00 9.214074259528E-01 -9.035612989175E-01 1.468597164782E+00 1.398661331438E+00 1.687262762842E+00 -5.562398479164E-01 3.258741206033E+00 4.161909863661E+00 -1.090350171043E+01 -3.832876640971E+00 1.818680620782E+00 -3.978446931228E-01 3.281658860357E-01 5.712297311302E+00 -7.788013219092E+00 -3.350956205768E+00 -4.416784008860E+00 3.660697830401E+01
 1.106209806679E+00 -1.734878124653E+00 4.575824544070E-01 -1.122629709836E+00 1.559981229192E+00 1.806338383813E+00 -1.232420550009E+00 7.437600929350E-01 -1.061153856086E+00 -2.366285335713E+00 -3.993291038882E+00 -1.350344749823E+01 -1.456194891730E-01 -5.229952283887E-01 -9.826556360144E-01 -4.993102626415E-01 1.388097956054E-01 5.580170026123E-01 -2.902188490179E+00 -3.284824132568E-01 -4.763844769927E+00 1.297402740870E+00 -1.836505354752E+00 -3.393795495007E+00 -5.899075800369E-02 2.445378684269E+00 -1.585414632473E+00 1.476067698235E+00 -1.021472943876E-01 -2.457422521117E+00 -8.053823177453E-01 7.818249229630E+00 4.127492836505E+01
 -5.426644474105E+00 2.027862420747E+00 -1.499199146409E+00 -1.361690749780E-01 8.995409509271E-02 -1.093707769528E-01 -2.496729082159E+00 1.934841236201E+00 -8.801375707932E-01 7.935384146330E-01 -7.412499668915E-01 -9.234734745765E-01 -1.040301858327E+01 8.254337388129E+00 2.745851430172E+00 -2.251338332557E+00 2.060656589027E+00 1.016910261596E+00 5.175360608605E-01 -5.738678884914E-02 5.186567733111E-01 -3.228965136843E+00 -3.731924833696E+00 9.669557902586E-01 -6.283548593645E-01 3.295654514813E-01 -6.094518410386E-01 -8.234845243900E-01 -1.289122584889E+00 -8.595289440670E-02 3.196076818139E-02 -4.249477560971E-01 1.328403208162E+00 2.534010605655E+01
 2.875054492637E+00 1.226666833357E+00 9.325947166379E-01 -2.091237505084E-01 9.993281840253E-01 2.286264019121E-01 3.198927474605E-01 -4.979281062166E-01 -2.167682370289E+00 -4.922265005454E-01 1.398144461979E+00 4.182681253625E-01 7.346759746743E+00 -7.644437396181E+00 -3.459398283226E+00 1.330424883086E+00 -1.208601454871E+00 -3.970313678742E-01 -6.427097665464E-01 -2.921307391048E-01 8.558766546003E-02 -4.818433464065E-01 -2.952965257315E+00 1.123717050049E+00 -3.422363600329E-01 7.553211506814E-01 -5.479586154817E-01 6.801090685803E-01 1.070721244751E+00 -6.778577864548E-01 -9.003953932898E-02 -1.380970076042E-01 -9.472411599345E-01 -7.244476348715E+00 3.203529381106E+01
 -4.445990218361E+00 2.396461726181E+00 -2.800662082825E+00 -1.014428481706E+00 -9.670828237805E-01 -1.520639480223E-01 -4.573641985411E-01 9.643872891475E-01 -9.981444799886E-01 8.623899866784E-01 -5.121977614728E-01 4.625737244160E-02 7.039974446162E+00 -5.528517587456E+00 -3.167213109543E+00 4.883744368521E-01 -2.702980312519E-01 -4.394176908706E-01 -5.701031009421E-01 5.711357996494E-01 6.339486479762E-01 3.426558225166E+00 2.854104428196E+00 -2.388028214730E+00 -7.159439213415E-01 1.046312316130E+00 1.373930850401E+00 -5.062077557654E-01 3.869652191859E-01 -1.163418366514E+00 5.720429327241E-02 1.820266371055E-01 3.752214526385E-01 6.421005521132E-01 2.027184207926E+00 1.428220155461E+01
 -4.024020540852E-01 -1.273418641797E+00 5.344388159455E-01 9.284424622669E-01 7.202240611368E-01 -1.162195735112E+00 8.470479106695E-01 -7.420999403106E-01 -1.540422187842E-01 9.445108088573E-01 1.169003268275E+00 1.524834657186E+00 -2.952114880121E+00 1.197579257717E-01 -3.009000354114E+00 5.485851070190E-01 -6.752132922858E-01 -1.016021591420E+00 -2.178174563083E+00 -1.116311117909E-01 -1.143193587921E+00 -7.344841812984E-01 -4.370679118453E-02 7.249285826612E-01 -5.565140753160E+00 -1.974811430236E-01 -3.521086347019E+00 5.425155322007E-02 1.697441584154E+00 7.530029898891E-01 8.874851812490E-01 -3.126302144194E-01 4.554488800800E-01 1.989481883219E-01 -8.076553935537E-01 -1.290971428074E+00 1.782751934780E+01
 6.232074034361E-01 -9.901848083545E-01 -1.112406118037E+00 -6.648099512854E-01 1.956541925458E+00 6.545776412983E-01 1.840668698491E-02 -7.168513756670E-03 1.194994429386E-01 -2.245932618543E-01 -1.264053653372E+00 1.096154766264E-01 -1.841367511357E+00 -3.140532792967E+00 -5.496010881769E+00 1.506743618510E+00 1.066996994777E+00 2.745678142562E-02 -1.444143850470E+00 2.294706057194E-01 6.015951574850E-01 -6.692118124097E-02 2.726272024888E-01 -1.551308677137E+00 6.670388385353E-01 -1.697711635483E+00 9.362741528904E-01 -1.038072164954E+00 5.353366596227E-01 9.996118457412E-01 8.178206445370E-01 -7.221293034905E-01 3.658939548674E-01 1.074146351175E-01 6.361588088678E-01 1.988298018408E+00 -3.026369182873E-01 1.908530577684E+01
 -5.593364584468E-01 -1.174968031013E+00 1.281237245102E+00 7.504171137205E-01 1.254967656714E+00 2.048990587857E+00 7.107390201453E-01 -1.337701768825E-01 -3.341452283229E-01 -9.718125795251E-01 -1.447868438804E-01 -1.751735158027E+00 -3.686468039336E+00 -5.096532855707E+00 -8.196346988337E+00 -1.092408961199E-01 -1.020264865013E+00 1.378059206347E+00 -7.044813044782E-01 -9.341540198424E-01 -1.743040311921E+00 -3.115490974284E-01 4.598643529026E-01 9.390290553692E-01 -1.962649129175E+00 -4.200413406859E-01 -4.061791487651E+00 1.118579491240E+00 -4.303898577780E-02 8.754071969590E-02 -2.220335233515E-01 -6.015521542953E-01 1.326678091405E+00 -5.353697885696E-01 1.322826197444E+00 -7.709071168944E-02 2.984820378175E+00 -3.078707463659E+00 2.945866399133E+01
 -1.367417039285E+00 -1.141950255892E+00 -1.133036033407E+00 8.638091765471E-01 -2.665094872313E-01 3.209057805318E-01 -8.945082724388E-01 4.187982731758E-01 -1.331646176713E+00 -8.317580492112E-01 6.837621860720E-01 -3.104091351235E-01 -4.483185351046E-01 -2.823203529838E-01 -1.989643228819E+00 -1.127984028790E+00 -1.047702121852E+00 -2.249139520836E+00 1.436983359988E+00 -7.088238102287E-01 6.419003649413E-02 -1.297235088194E+00 8.750606311628E-01 1.245897655551E+00 -2.040666144211E+00 -4.322702313881E+00 -1.509637434577E+00 -2.254056595556E+00 -2.991656880230E-01 2.505600318907E+00 1.167922497819E+00 4.025761949448E-01 4.746860827830E-01 6.762253380745E-02 -4.435416987581E-01 2.881867903082E-01 1.910898944166E-01 1.607379182676E+00 7.340420467322E-01 1.972717226047E+01
 -1.055450129179E-01 6.902690850953E-01 5.958081846370E-01 1.273243161169E+00 -1.946939661862E+00 8.782287581345E-01 -2.260719744368E-01 1.263983215742E+00 -1.020271418558E+00 1.205833391988E-01 1.066738070397E+00 -9.622168002586E-02 -7.208126975829E-01 1.450780573083E-02 9.238190160669E-02 1.080095507383E+00 -7.199581933375E-01 2.758858941383E-01 -2.547044287805E-01 1.287457423079E+00 7.932233918227E-01 -1.172155322510E+00 -7.988267486779E-01 9.693806472279E-01 -3.475844877733E+00 -6.639773792232E+00 -1.170430925623E+00 -2.164581502430E+00 -3.521642064195E-02 2.851058775127E+00 3.485860958130E-01 -2.475204308389E-01 -5.466341376395E-02 1.318692759432E+00 -7.507250820983E-03 -4.057310810946E-02 1.400249206156E+00 -6.090314293963E+00 5.449135682841E-01 -7.574707172137E-01 2.434839917588E+01
 1.640299129319E+00 1.307314717402E+00 -1.918234899512E-01 -1.453987401886E+00 9.543384850995E-01 -1.754962665297E-01 5.288699947390E-02 -7.444240383757E-01 1.420793423415E-01 -2.097103763268E+00 -6.432399325028E-01 -1.515889508025E+00 4.753990948713E-01 -5.415582831668E-01 -9.460418228467E-02 -1.602819848274E-01 -1.163981044928E+00 -4.333064926226E+00 5.839643753683E-01 -1.141496755812E+00 8.217474448587E-01 -4.697558808817E-01 2.654156420930E-01 -3.895089290243E-01 4.117870034195E-02 6.937659574998E-01 -1.311098222258E+00 2.575170948115E+00 7.378296335648E-01 -4.488294390769E+00 -5.052823032508E-01 -4.877973983993E-01 3.507957436504E-01 -3.110078452778E-01 1.482348334713E+00 7.606508301893E-01 -1.727234693737E+00 1.924914217371E+00 -1.095368135230E+00 -4.446060829959E+00 7.936908775779E+00 2.412641015281E+01
 -4.249284862319E-01 7.335765835375E-01 6.864052808425E-02 -7.251026791146E-01 -2.643580264361E-01 1.517510925288E-01 -2.183891072416E-01 2.385130282086E-01 8.786135286984E-01 7.390010035434E-02 -1.462220863119E-01 2.642260279877E-01 4.804609745346E-01 1.718596239827E-01 9.455973473985E-01 -8.354556630469E-01 2.872047712389E-01 -3.759826244428E-01 -1.894565561629E-01 4.378870248559E-01 -8.325740342072E-02 -4.579364504346E-01 -1.980311780274E-01 -3.067743766410E-01 -5.691305901789E-01 3.291279270642E-02 -8.638135376014E-01 -2.328658215984E+00 2.240263643605E+00 -3.744199541475E+00 -8.943842781764E-01 7.966101848560E-02 1.351074510194E+00 8.333750873961E-01 -9.785598385028E-01 7.248281395252E-01 -3.066801171719E+00 -2.848346555193E+00 5.027960457498E-01 -7.865213144465E+00 5.976409153849E-01 -2.222003198970E-01 1.949755387500E+01
 -4.539025028993E-01 -1.216013300554E+00 -2.631724267758E-01 7.088135343049E-01 -6.316980538027E-01 5.253559568202E-01 -9.556716795353E-01 8.879159810351E-01 7.274948948625E-01 -2.512040909252E-01 1.166475578906E-01 -7.062162097089E-01 -1.027140700945E+00 1.412108438023E+00 -3.475109768771E-01 1.565578952168E+00 6.355958079050E-01 -7.627443989741E-01 1.030094305285E+00 1.608848561663E+00 1.516908466767E+00 -1.573383208630E+00 1.585702977766E-01 2.226073594775E+00 8.532271970646E-01 -1.140555568124E+00 6.460476784435E-02 2.979525069715E+00 -3.952972355098E+00 3.684296672333E+00 5.631361853135E-01 -8.831169048892E-01 -1.669172457675E+00 1.944205424126E-01 -1.715199826004E+00 -1.586673402137E+00 -2.765605936691E+00 -3.095102455175E+00 9.808665128674E-01 2.998032630578E+00 -7.604977665828E-01 6.019800751184E-01 -2.402396822834E-01 1.989502528008E+01
 -1.785770865156E+00 -2.732156713371E-01 -1.753895106943E+00 8.100216856311E-01 1.587320781410E+00 -1.875460338138E-03 -5.688611498865E-02 -5.655766960373E-01 -1.374031506649E-01 -5.794213100540E-01 1.861946806703E-01 1.909689994807E-01 -8.363995511890E-02 4.119108972028E-01 5.161840068602E-01 -5.506763330882E-02 -1.405007673049E+00 7.228226436196E-01 6.350976994259E-01 -7.978592799641E-01 -2.475476837060E-01 -7.911365294590E-01 9.744179023863E-01 1.712813516685E+00 6.123321399323E-01 -1.250407048990E+00 3.784459789758E-01 -1.685444413297E+00 2.597203850627E+00 -3.885168424763E+00 -1.183360045797E+00 -3.706060835270E+00 -1.343488531920E+01 6.227306360759E-01 -1.787874365366E+00 2.191434046768E-01 1.557585164841E+00 2.677679419837E+00 -5.198756775107E-01 2.883545670478E+00 -5.605268926564E-01 -9.227884949635E-01 3.510042786701E+00 1.668476466963E+00 2.413368981404E+01
 9.126622832239E-01 3.132550298532E-01 -3.731292944701E-01 1.884069460275E-01 9.276169973775E-01 8.367366823819E-01 -1.330162196397E-01 -3.750779014783E-01 -2.808919363531E-01 2.931797714784E-02 -7.113402502567E-01 -1.126630664662E+00 -8.972561393587E+00 -3.830994144688E+00 1.614192714332E+00 -1.188602387258E+00 4.197848150241E-01 1.557794346605E+00 -7.972641807969E-02 -7.554416099412E-01 -2.952328924106E-01 -4.544183171344E+00 1.057535757600E+00 7.297110980889E+00 2.702448831864E-01 -5.422222245473E-01 -8.150245290246E-01 -4.755320855248E-01 2.697870010420E-01 1.002071766863E+00 -6.267977969376E-01 -2.552045369456E+00 -6.843710681160E-01 -8.755603688405E-01 -1.206138390688E+00 -2.078506896555E+00 -4.500251363599E+00 1.325279714335E+00 2.629624614610E+00 -5.930740218311E-01 7.230954054514E-01 -2.216992829575E-01 4.426688000209E-01 -6.773235550649E-02 7.552434452294E-01 2.937786878689E+01
 -8.278331481687E-01 3.085592075957E-01 6.422272606397E-01 -3.210948026735E-01 4.664615175996E-01 7.268943514370E-01 1.751407711252E+00 -8.318863573348E-01 9.246230235012E-01 -1.014136734556E+00 6.914083843858E-01 -4.572354739206E-01 -5.416790378674E-01 -3.233667002116E+00 -2.359682223819E+00 3.217346477379E-01 -9.589708221955E-01 -8.057156555566E-01 -3.075636935185E-01 -1.044304162650E+00 -2.231396963055E+00 -4.466032696113E-01 4.729364073778E-01 -8.230311494738E-01 1.173987749045E+00 1.060049946112E+00 4.890735301774E-01 9.310721637992E-01 4.367652615156E-01 6.735169215851E-01 -1.380597596218E+00 -5.091394655096E+00 2.379986247806E+00 -4.063177823231E+00 -1.190646747382E+01 -5.640573696403E+00 1.323832933985E+00 -1.201964804790E+00 -2.712465363652E-01 6.234114454295E-01 -1.076487232318E+00 -6.341752407068E-01 1.417932331264E+00 -7.459955441564E+00 -4.844449660591E-01 -3.306030773562E+00 3.162474914209E+01
 -1.722309704742E+00 -6.136254174249E-02 8.477315178720E-01 4.408533137353E-01 -6.014184359324E-01 -1.685378970094E+00 9.623777768727E-01 -1.123229419253E+00 9.684871799495E-01 7.685132616308E-01 3.919422423024E-01 2.947354147308E-01 -5.800714003680E-01 -3.083393151234E-01 -1.540552102206E+00 -1.452527527143E+00 3.939713177514E-01 3.948145193867E-01 -1.252963798533E+00 -1.815624260853E+00 -1.683548370071E+00 4.041838306587E+00 -1.938151916037E+00 -9.320807999391E+00 4.813175099842E-02 1.008391262866E-01 5.747593999204E-01 1.656320412796E+00 -3.559353135527E-01 -1.543062820762E-01 -5.779375378994E-01 6.935165480872E+00 -3.935226483599E+00 -1.431417779979E+00 -4.915457683911E+00 -3.902839942605E+00 4.831583670768E+00 -1.675341898781E+00 -5.110542888120E+00 5.144107189575E-01 -1.618455842694E+00 -4.940457526956E-01 4.559631472517E-01 -3.368900569528E+00 -1.330006851630E+00 -6.438547126408E-01 7.283305716630E+00 3.786494365342E+01
 -1.751256890464E-01 3.046498742379E-03 -1.023733928501E+00 -3.221939502045E+00 1.842464390733E+00 4.493088812948E+00 -4.482536682645E+00 4.553798121886E+00 8.245134279920E-01 -8.180436202050E+00 -3.894155542155E+00 -8.377879569686E-01 4.683460431650E-01 -3.368250967186E-01 1.037335402102E+00 2.517284715446E-01 -2.182133351610E-01 6.153351259110E-01 -3.188518057540E-01 -3.263789111620E+00 -3.236391811049E+00 9.793605260493E-01 8.303222683288E-01 -2.974852372171E-01 -4.680335437946E-01 -4.736325920251E-02 2.174032477640E+00 -1.791244240940E-01 5.476466327077E-01 -7.080001464401E-01 -2.771000828913E-01 -1.552984453291E+00 2.117439988465E-01 5.687277666918E-01 -8.070653388054E-01 1.636460005625E-01 -1.949613566101E+00 4.700290840644E-01 1.162184211348E+00 -6.433189285395E-01 2.748557510970E-02 2.476181743687E+00 4.983328502909E-01 -1.002536085962E-01 -1.303927570462E-01 4.893079452291E-01 6.478270935854E-01 -6.458548322189E-01 2.151714555847E+01
 1.088330410336E+00 -3.758572520345E+00 6.416222698127E+00 1.181419541660E+00 -2.639900301476E-01 -3.197521933238E+00 4.471669865548E+00 -4.419458682292E+00 -1.037079977737E+00 -2.647701380815E+00 -1.391148609742E+00 5.065835258683E-01 4.451915809660E-01 -1.473955238628E+00 6.461828026538E-01 -8.538151968243E-01 4.937078534023E-01 1.101264208166E-01 -4.326501330671E+00 -7.855211194649E+00 -7.155416187927E+00 4.001111284155E-01 3.980296242012E-01 -3.805545068436E-01 4.721545385193E-01 1.039751369400E+00 -3.457864008967E-01 -8.519106815879E-02 1.109152050421E-01 -1.290770922597E+00 1.548671050368E+00 6.805680031683E-02 -6.157860289873E-01 -1.486319842618E+00 8.337109863875E-01 4.352486397247E-01 1.096516285014E-01 -1.033103018074E+00 4.671449757529E-01 -7.072703583214E-01 -1.142815498374E+00 -7.503140339381E-01 4.604906893751E-01 -2.081292594140E+00 -5.529590816197E-01 5.095466055254E-01 4.787004423528E-01 2.037614601142E+00 -1.922686237583E-01 2.086905921846E+01
 1.678632327722E+00 5.449707881953E+00 -4.878609883452E+00 5.972883560940E+00 -3.272913016876E+00 -1.543800979412E+01 8.612837215609E-01 6.904018118017E-01 1.057395215572E+00 8.065548173045E-01 6.290515325075E-01 -8.783416550088E-01 1.237508957462E+00 -1.035990201513E+00 2.013716721066E-01 6.180543152612E-01 1.624381426108E+00 -2.449754126354E+00 -5.897425384525E+00 -8.099311506915E+00 -6.209726996597E+00 1.756494049325E+00 8.266332131308E-02 1.338175417002E-01 -1.187877448990E-01 1.412761109530E-01 -4.258613468232E-01 -3.827991827334E-01 -7.360242406385E-01 -1.365297000442E+00 1.209050928192E+00 2.181725122189E+00 5.106308003392E-01 -1.035613007391E+00 1.398280994319E+00 5.170835697817E-01 -1.118307443129E-01 -2.420902631734E+00 -1.833476783160E-02 2.542958303398E-01 -9.967014788057E-01 -2.845160393379E-01 6.046348628334E-01 -3.732483701744E-01 -8.748702549610E-01 -8.637310997963E-01 -5.442940084162E-01 -1.480822511977E-01 3.050211822899E+00 4.550924024548E+00 3.768221205664E+01
 -1.132423453077E+01 -1.124780301369E+01 3.927354691624E-01 -8.047467195388E+00 5.948770787502E+00 2.267795098495E+00 7.591683787203E-01 -8.773532615401E-01 1.450797324065E+00 -4.397451647067E+00 -3.140835241554E+00 6.870485507078E+00 -5.741485199834E+00 -3.327681842088E+00 5.845431311907E+00 6.752474617672E-01 -3.108488701401E+00 -1.771002517890E-01 -1.118787830479E+00 3.411831504750E+00 -1.098781334396E+00 -1.438905940783E+01 3.393235965843E+00 -7.232584438648E-01 1.550390280450E-01 -5.661237877909E-01 2.803022665826E-01 -1.373469101463E+00 2.736848180021E-01 8.204536776936E-01 -5.190768885319E-01 -5.104099418299E+00 -1.693155616735E+00 -3.238699620762E+00 6.882682804759E-02 -2.780697852645E+00 3.577572333690E-01 -1.381341784263E-01 1.633253830493E+00 9.051521299412E-01 1.302073760805E+00 -5.596837522770E-01 5.792635024802E-01 1.635025034076E+00 1.679906538696E+00 -2.322848077036E+00 1.372136151128E+00 -5.361820186289E+00 -4.695622178155E+00 3.391459584608E-01 -1.156605382468E+01 5.993006074890E+01
 -9.882137420559E+00 -9.622394965681E+00 -1.400334947299E+00 -5.666363057011E-01 1.803595259479E+00 1.117981289447E-01 6.579497109454E-01 -9.960397981200E-01 2.580823838751E-01 -4.020465041845E+00 -4.123968062684E+00 4.777429845786E+00 -4.250498914989E+00 -1.177912855310E-01 3.621807713111E+00 -1.669537204968E+00 -1.666043108997E+00 -1.188891876991E+00 2.746670770523E+00 -4.242468962398E+00 2.014310499024E+00 3.933541523937E+00 5.087694989956E-01 -1.042093585339E+00 1.021858528990E+00 8.164728085404E-02 1.016338507947E+00 7.750773180534E-01 4.042530187306E+00 -1.059801273710E+00 -2.535735047199E+00 -9.846211087362E+00 -3.895821241225E-01 6.577156211487E+00 -1.408225444142E+01 3.846865922678E+00 1.279718133538E-01 4.219016820825E-01 8.662746254964E-01 1.210276262796E+00 -9.099953432176E-01 2.498772912296E-01 7.770335471454E-01 9.869069402024E-01 1.144094565772E+00 -1.376580987832E-01 8.543503486722E-01 -6.603008461221E-01 1.014774875614E+00 -9.571158432925E-01 -2.624227600581E+00 5.999118429457E+00 4.588635953076E+01
 1.339201817275E-01 1.850629066787E+00 1.313469994585E+00 2.411794748424E+00 -1.581007480592E+00 -1.154732539550E+00 -2.811576443682E+00 1.165501886632E+00 -7.489493125750E-01 3.706115121763E+00 5.533242179437E+00 -7.726243235936E+00 2.347723972466E+00 4.135676050943E+00 -7.724756914580E+00 6.088573580587E-01 -3.988370893188E-01 -3.978062882370E-01 4.612847357054E+00 2.622648975903E+00 1.894157757247E+00 1.620855691468E+00 -1.288385995391E+00 1.034429479122E+00 1.917084226539E+00 -4.098218488222E-01 -2.850463229626E+00 -9.863848009559E-01 -7.827194824436E-02 -3.769587392566E-01 -1.907122582339E+00 -2.397940067315E+00 -1.866660591830E+00 -1.506955740643E-01 4.929446453985E+00 -4.276830033574E+00 1.341957734969E+00 -1.073067115797E+00 -1.502308002417E-01 -5.359510667699E-02 2.189241496847E-02 -5.237132765275E-01 -1.764303108278E-01 -4.999131498481E-01 1.096175900301E-01 -6.128221231996E+00 7.116993873653E-01 -1.018344392900E+01 -8.503388741884E+00 -1.954230213296E+00 -7.455629300759E+00 2.721445559939E-01 -4.121760744498E+00 4.704791013801E+01