#BIOSYM hessian 1
@Type: Hessian Update
@Units
 distance: 	A
 energy: 	Kcal/Mol
#header
@natom 2

#label
M1      M2

#element
Mn Mn

#matrix
6
 2.187247192153E+03
 -1.573009627512E+02 1.779809670255E+03
 1.621387178096E+02 4.752509326084E+02 1.750944519728E+03
 5.359892856758E+01 1.573009627512E+02 -1.621387178096E+02 2.187247192153E+03
 1.573009627512E+02 4.610364504663E+02 -4.752509326084E+02 -1.573009627512E+02 1.779809670255E+03
 -1.621387178096E+02 -4.752509326084E+02 4.899016009932E+02 1.621387178096E+02 4.752509326084E+02 1.750944519728E+03

