#BIOSYM hessian 1
@Type: Hessian Update
@Units
 distance: 	A
 energy: 	Kcal/Mol
#header
@natom 19

#label
L1      L2      L3      L4      L5      L6      L7      L8      L9      L10     L11     L12     L13     L14     L15     L16     L17     L18     L19

#element
Li Li Li Li Li Li Li Li Li Li Li Li Li Li Li Li Li Li Li

#matrix
57
 1.606187027469E+01
 -2.543589805225E+00 1.090729460149E+01
 -2.179664188031E+00 1.567603776527E+00 5.477142341134E+00
 3.359960951707E-01 7.539531946579E-01 2.660373908101E-01 1.181948556471E+01
 -1.247407286496E+00 -1.417967047433E+00 -2.428377637453E-01 -3.746592696667E-01 1.297161353272E+01
 -2.808538381415E+00 -1.327188823850E-01 1.640041615446E+00 -6.162851483244E-01 9.548408519784E-01 1.958908851832E+01
 -2.775714416225E+00 6.869999469337E-01 -1.619794367540E-02 5.088109224067E-01 7.138105575067E-01 -9.003249919096E-01 1.985437594725E+01
 -7.970215426090E-01 1.349241962123E+00 8.306886661756E-01 -4.112921362012E-01 -1.689663229599E-01 2.620018413173E-01 2.055599965555E+00 9.887835689593E+00
 9.968779171498E-01 -6.824711685548E-01 -1.183485169508E+00 -5.408996384027E-01 1.180202252528E+00 -5.670316174095E-01 2.873852265688E+00 3.150197381116E-01 2.309285251646E+01
 -5.307785075990E+00 -2.804450287824E+00 1.228555543960E+00 -5.993623597580E-01 1.476039174009E+00 1.007504862998E+00 -1.068398846334E+00 3.109933047080E+00 6.953545967785E-01 3.099597355418E+01
 5.067303497212E-02 -1.006466790822E+00 4.917310193764E-01 9.692747697818E-01 1.016590656296E+00 -3.871882838764E+00 4.187680335222E-01 -1.261956415741E+00 4.985353040506E+00 1.501021821506E+01 2.877626987841E+01
 -1.440282973588E+00 -2.513824770632E+00 -5.361026588621E-01 -9.848079991426E-01 1.769319523854E+00 -1.069304910996E+00 -3.005358109864E+00 -6.867926750070E-01 2.456568989336E+00 1.087451561068E+00 -3.471549653023E+00 1.963658700422E+01
 1.207218802032E+00 1.617004284848E+00 1.556730835218E+00 -6.584072972603E+00 -6.345030364501E+00 1.363957704703E+00 -1.654347696302E+00 -8.407735211065E-01 -1.465702320642E+00 -3.220006906871E+00 8.477897280984E-01 -1.794292583972E+00 1.394229442162E+01
 -1.633623303150E+00 -6.118161652858E-01 -3.238721835701E-01 -3.902692459405E+00 -4.175556027825E+00 3.490784751461E+00 -2.589612240444E+00 5.295119999496E-01 -2.058614494311E+00 -2.444351943821E+00 -4.919253869968E+00 1.899996963045E+00 2.852630700812E+00 1.261637168348E+01
 1.193827179214E+00 -2.462368866944E-01 6.465966439089E-01 1.618094943332E+00 1.173707713437E+00 1.436929867497E-02 2.785363535748E-01 -1.696892262881E-01 4.429119675983E-01 -3.803860650050E+00 -1.628369067245E+00 -5.616006042185E+00 2.770027319323E+00 -7.082263655619E+00 1.336111084330E+01
 -6.932616609494E-02 5.420450639582E-01 -5.211960193422E-01 1.112629407002E-01 2.427719826583E-01 -3.256305815329E+00 1.037356231484E+00 -2.776798713916E-01 2.572943130255E-01 5.295122651908E-02 1.619067698685E+00 1.851300372991E+00 -6.974529069991E-01 -1.374481948718E+00 -9.263573034728E-01 5.186767695722E+00
 -2.542796492822E+00 1.344913956304E-01 -4.705353258007E-01 -9.022822799275E-02 8.309298612835E-01 5.479444760834E-01 -3.578687180372E-02 -3.656720123960E-02 2.190926791945E-01 4.257826090351E+00 -3.058509759173E-01 -3.989114312039E+00 -9.302707501195E-01 8.563758135329E-01 2.890901406092E-02 -2.392558620604E+00 1.246661877243E+01
 2.517732931028E+00 5.817665790428E-01 -1.347101173581E+00 -2.104815792776E-01 2.003567860983E-01 -3.045065592680E+00 1.063495017475E-01 -6.323450772493E-01 1.708871650473E+00 -2.344958395908E+00 2.808890770290E+00 2.458296390522E+00 6.790379085435E-02 -2.004192410653E+00 -6.340010353994E-01 2.993210418449E+00 -4.176372174623E+00 5.291368971634E+00
 4.347196837143E-01 2.202213322789E-01 -1.161032591958E+00 1.433312598701E-01 -8.419047218717E-02 -1.253244407721E+00 -2.855040053764E+00 3.665713880088E-01 -7.871200578105E-01 -5.831017104777E+00 -6.081053107091E-02 2.166392951625E+00 1.649653318505E+00 1.632983992392E+00 2.126680935261E+00 1.346565672060E+00 -3.192124636764E+00 2.719827282271E+00 1.755923222356E+01
 2.656336408186E+00 1.359638904784E+00 -2.228127516022E-01 -2.321706619768E+00 6.702206507297E-01 -6.877940145315E-01 -2.133246010622E-01 -4.944428217198E-01 -4.558154619652E-01 -2.949280222647E+00 -1.158750043959E+00 7.387566629645E-01 2.069272328115E+00 -2.535860083485E-01 9.504227757689E-01 -6.263940014955E-01 -5.374528065983E+00 2.726854016164E+00 2.083870100171E+00 1.702693344316E+01
 2.584116934185E+00 2.772473066876E-01 1.156704610912E+00 1.018383897677E+00 1.228615187443E+00 -9.510359415036E-01 9.732087144919E-01 3.482958809731E-01 2.439086360193E+00 -3.723193123003E+00 1.280963059372E+00 -3.207664151230E+00 5.264761472386E-01 -1.559130191767E+00 2.264520589373E+00 7.230870812402E-01 1.870736447485E+00 8.003289512799E-01 8.085478679129E+00 -1.021253001153E+00 1.118670518757E+01
 -8.137217952953E-01 -1.268908333506E+00 -3.322213060033E-01 -8.470807413029E-02 -3.634027373036E-01 1.307986785060E+00 -1.017423925751E+00 -4.878776211425E-01 -1.486742157133E+00 4.683701070761E+00 6.152112657324E-02 4.648588033852E+00 -1.796526916476E+00 -2.414610691647E-01 -1.275236206847E+00 -8.281086842187E-01 -2.401712170724E-02 -1.319760587086E+00 -3.080676715517E+00 -2.421017737754E+00 -3.866352736944E+00 1.458126755253E+01
 6.075635686339E-03 1.173018105068E+00 7.968931371078E-01 3.568981522185E-01 -7.260306178935E-01 -2.863323579552E-01 2.329214734735E+00 7.378457994182E-01 5.453031686419E-01 1.101305670579E+00 1.570898448440E+00 -8.340530365924E-01 1.228923767781E+00 -2.574515349606E+00 -4.751201753032E-01 6.920468635030E-03 -9.594922211738E-01 1.582114476846E+00 -3.615557981076E+00 -2.636864603359E+00 -1.579967501135E+00 -2.658208603589E+00 7.889392866225E+00
 -6.221785194721E-01 -6.259588350063E-01 7.210950898173E-02 3.384020294998E-01 -8.457380269415E-01 1.775434963876E+00 3.686577976768E-01 1.859759831360E-01 -2.775419565341E+00 1.669993927134E+00 1.157944334916E+00 -3.909868661903E+00 1.422628265721E+00 -1.359348004248E+00 2.109567304433E+00 -3.156369881757E+00 3.845119576595E+00 -5.500731340283E+00 -6.846312201590E+00 -4.313684981904E+00 -3.280360014409E+00 -2.317833049642E+00 4.507148732618E-01 1.718655227287E+01
 -5.552413110501E+00 -2.209963752271E-01 -1.409939899034E+00 -5.082322080174E+00 5.029978973486E+00 6.803946478834E+00 2.627398339635E+00 1.037799905863E+00 9.827245329306E-01 -1.018290070716E-01 -2.957193052193E+00 8.237784447182E+00 2.474864145588E+00 2.038357492788E-01 -2.108153887624E+00 -1.292943888171E-01 1.617336912966E+00 -1.394170079211E+00 -2.014970060780E-01 2.440027584586E+00 -1.072645014580E+00 5.538027671211E-01 -1.101681793417E+00 1.372798677671E+00 2.369653181297E+01
 3.349094827474E+00 4.472140997546E-01 -9.503707470175E-01 2.982706201554E+00 -3.086809590206E+00 -4.715893853725E+00 5.327726767755E-01 -2.856785101836E-02 -7.433043878418E-01 -7.430336908138E+00 -8.715270349058E+00 4.106329932432E+00 7.989275892831E-01 -5.687134334202E-01 -3.665305776077E-01 1.202427626029E+00 -1.099984170996E+00 2.200396375171E+00 -8.997973624788E-01 7.936932167497E-01 -3.308322006265E-01 -5.254094518119E-02 1.059765243755E+00 1.022809698856E+00 -6.568884527429E+00 1.872373972914E+01
 -9.595534896815E-01 4.360304448303E-02 -1.560038562161E+00 2.490410380234E+00 -1.310996915704E+00 -3.785872983081E+00 5.678200767885E-01 1.496250324729E+00 -7.466665925464E-01 3.334306960439E+00 1.008672801887E+01 -2.628866107149E+00 -9.066730979307E-01 -6.429403927246E-01 2.414191113769E-01 9.177693326454E-03 -3.053122539278E+00 7.332315566220E-01 -1.367935556503E+00 7.095689101350E-01 -1.232332938711E+00 -7.215334294415E-01 1.205657189171E+00 7.167103227400E-01 6.635727727992E-01 -5.712105356121E+00 1.550117408220E+01
 -1.420226697069E+00 -1.216700826700E+00 -9.142868374529E-01 -5.517438832409E-01 -6.602155181559E-01 -4.430424151844E-01 -3.204032829450E+00 -7.154158731349E-02 -2.059795492643E+00 2.325701679698E+00 -2.870109205949E+00 5.934667250094E-01 -3.604344106411E+00 2.126927567177E+00 -4.020946849765E+00 1.419026899511E+00 -6.884725821865E-01 -4.644150106251E-02 -2.433435172144E+00 -1.175902465523E-01 -1.453476819692E+00 -1.190155228386E+00 -5.166884092277E-01 1.044513547421E+00 8.643192697689E-02 1.755642628573E-02 5.467972775316E-01 1.440386376077E+01
 1.134166041233E+00 -7.732756176522E-01 -4.782802813189E-01 -1.374716687303E-02 1.122699312335E+00 7.261815575953E-01 -3.170055857455E+00 -3.494919913703E+00 1.415410150201E-01 -4.674398458090E+00 -1.868188666806E+00 1.330478863887E+00 2.902105639630E+00 -5.313492074410E-01 4.973403275377E+00 -2.208637174661E-01 3.983845240864E-01 8.662840835935E-01 2.232118030034E+00 3.201172201808E-01 2.083891154512E+00 8.489936392356E-01 -8.390102100940E-01 -2.241322861726E+00 -3.401415453881E-02 -1.425139098503E-01 -1.515554014942E+00 1.901549910317E+00 1.121701643773E+01
 3.808180893300E-01 5.051196201561E-01 -5.510319183994E-01 -7.637874621689E-01 -1.796979139857E+00 4.984431453939E-01 9.361879724219E-01 2.707422728046E-01 -5.903360049484E-01 -2.890012379651E-02 7.734216868836E-01 -1.642881118276E+00 -2.132428742451E+00 -3.749785566215E-01 -3.462224099669E+00 -1.364449863299E-01 1.159172417932E+00 8.215201818246E-01 -7.810746036628E-02 -7.260771266939E-01 8.605067013224E-01 6.831272370727E-01 2.056757813817E-01 1.098978713029E+00 -3.177513834039E-01 9.018265557603E-01 -1.008159768341E+00 6.607841159656E-01 -5.427883862858E+00 8.902319192957E+00
 -2.750259035021E+00 1.759068423777E+00 -2.150958998565E-01 2.793345016128E+00 -3.529779296785E+00 -4.451814889288E-01 -4.761302026652E+00 -2.315071869750E+00 -3.318132179637E+00 -1.207761979446E+01 -9.948480417138E+00 6.381541723466E-01 -1.556146911517E+00 6.869083637603E+00 -2.165671630814E+00 -2.048927780350E+00 9.894370942049E-01 -1.644730411954E+00 -5.533374203436E-02 -1.345285665262E+00 -6.597906016029E-01 -6.307436348655E-01 -2.118891377312E-01 2.831448966473E+00 -7.948633731250E+00 8.532142263092E+00 -6.734355913275E-01 3.303235616392E+00 1.987141327626E+00 1.113887816898E+00 2.290607054408E+01
 2.774377661747E-01 7.189187091155E-01 -5.297802092170E-02 -1.758153586325E-01 2.049861863858E-01 -4.165513449980E-01 5.418595828803E+00 3.831593611259E+00 2.541061873367E+00 5.844160565219E+00 6.068219883554E+00 -2.110424482265E+00 -3.371299886833E+00 -1.671969420680E+00 -4.012213567988E+00 3.478192376115E-01 -1.674633961110E+00 -1.416078114919E+00 -2.008195641606E+00 -6.110851753004E-01 9.158964185357E-01 -9.029697074281E-01 2.298818341637E-01 6.756678097162E+00 5.321197200616E+00 -8.240036844336E+00 4.299864983878E+00 2.459696741924E+00 -6.495491301966E+00 6.315567605121E+00 -4.468731338519E+00 2.208168518462E+01
 2.100828939582E+00 -4.567897430843E-01 -1.704862137339E+00 2.261752604257E+00 -3.892174024922E-01 -3.926304189253E+00 -4.664068823470E+00 -8.596780275267E-01 -4.497795875677E+00 2.091640497235E+00 -2.044029018770E+00 3.312895761361E+00 -1.401007192422E+00 -3.497056474599E+00 7.126721259711E-01 2.795819186797E+00 -2.017790690127E+00 1.772425384053E+00 2.415352748497E+00 -9.776920742612E-01 -1.182971052930E-02 2.035435358534E+00 -6.737792196525E-01 2.083926412145E-01 -3.469068436562E+00 8.280094721879E+00 -1.756970073075E+00 1.014976680380E+00 -1.324504311169E+00 8.315271211924E-01 4.101830812600E-01 -3.905868352055E+00 1.094148544409E+01
 2.154521744183E+00 1.405141718428E-01 -1.589269548256E+00 1.048314883119E+00 1.540554205801E+00 1.911560546167E+00 9.259936457119E-01 6.798188362917E-01 1.658812924700E-01 -3.913334745958E+00 -2.366328984325E+00 -5.527603447296E+00 -3.091398654200E+00 3.933492515916E+00 -1.650792924475E+00 7.839717000834E-02 1.772127746533E+00 -1.555055161809E+00 -1.295080238517E+00 -3.494257319688E+00 1.976954495993E-01 -2.412108507909E-01 -6.352650343427E-01 -6.328011331019E-01 -3.259762055795E+00 -1.505187869162E+00 6.446163896583E-01 3.887031330625E-01 -1.267291016793E+00 -1.127127338586E+00 3.060116326884E+00 -1.167328467041E+00 -1.670488767070E+00 9.515118377922E+00
 2.364986113820E+00 -4.980731645159E+00 -1.686134280673E+00 -3.094020286350E-01 3.116369893919E-01 -9.844453883194E-01 1.855071975552E-01 -8.940813855457E-01 3.164197999024E-01 -1.180077277750E+00 1.921474431479E-01 -1.598866199698E+00 -2.058123139426E+00 2.655422086875E+00 -3.947866643323E-01 3.739984961914E-01 -5.740018803473E-01 -5.123758324799E-01 -3.647361342426E-01 -1.406344788741E+00 -1.970699647622E+00 9.085438947157E-01 -1.676607912573E+00 1.106281178089E+00 -2.916026941659E+00 -4.929559325890E-01 9.336199661405E-02 3.096897706306E+00 2.034507330760E-01 5.744562591200E-01 7.083019123533E-01 9.770689612805E-01 -6.911823544035E-01 3.700410859584E+00 7.727001794338E+00
 -3.926771690049E+00 3.068116936217E+00 5.864734709193E-01 9.295040267130E-01 -7.007624001070E-01 2.049860266832E+00 3.578868311563E-01 -4.779767681617E-01 -5.393829996669E-01 5.484644993099E-01 -4.092327666708E+00 -6.283324014033E+00 -1.400252527503E+00 3.016666434035E+00 -8.697577086664E-01 1.224512538818E+00 1.550088255419E+00 -2.644301343800E+00 -5.391554682622E+00 -2.643368947841E+00 -3.684710166649E+00 3.640809087530E-01 -6.465399710915E-02 -2.837504106406E-01 -3.033040695637E+00 -1.951934450670E+00 -3.802225515482E-01 2.123620416263E+00 -1.777320585334E+00 -2.337179012462E+00 2.581003784577E+00 -1.918643615075E+00 -1.014956016483E+00 7.109484350125E+00 1.820041086014E+00 1.247300889877E+01
 5.830377912212E+00 -1.355826043644E-01 -1.065264742733E+00 -1.682014833773E+00 -1.901897033539E-01 1.364637174881E-01 -7.288596490780E+00 -4.050185667507E+00 4.469755882308E+00 -5.286177768551E+00 5.015815640987E+00 -2.725148840730E+00 4.406287017246E+00 -1.429350884717E+00 8.889976307472E-01 -1.882956386710E-01 1.504309624379E+00 2.827952906469E+00 2.156712231840E+00 1.131029365234E+00 2.162158415287E+00 -8.483159595743E+00 5.409788882793E+00 1.264305187220E+00 -1.659572003765E+00 6.513107702099E-01 -1.340901093182E-01 -4.740969559505E+00 1.618060495511E+00 1.328776967511E+00 1.008006079752E+00 -4.054472726161E+00 -7.193012978157E-01 -2.213259004547E+00 -1.654627457476E+00 -5.354665956487E+00 3.196495547878E+01
 -3.062381424814E-01 -8.184133879501E-02 -3.968524984491E-01 1.730422615021E-02 3.406443618019E-01 1.688677088621E+00 -4.697818963464E+00 -2.232201375192E+00 -4.358684604941E-01 -4.566445214323E-01 -5.340654381281E-01 3.195300586470E+00 -1.419087078214E+00 1.284737879202E+00 -9.651178560684E-01 5.692224690447E-01 -2.021076250128E+00 -6.728735003739E-01 8.696503186157E-01 1.311414285953E+00 -2.084328557000E+00 5.428461526236E+00 -4.898629653869E+00 -7.855746485693E-01 3.891834195870E-01 -6.685276605681E-01 -6.080977906710E-01 1.025054116225E-01 1.157322749647E-01 -8.473731607801E-01 7.537027417954E-01 -2.206209907161E+00 2.189497221191E+00 1.366229291664E-01 1.825252418385E-01 1.078793628756E+00 -6.109906731374E-01 7.678311311675E+00
 -1.169374199501E+00 -2.823799458708E+00 1.653651784946E+00 -1.055763595180E-01 1.455628251410E-01 1.592049865811E-01 6.731967232260E-01 5.225700219513E-01 -3.162933362899E+00 -2.365400072296E+00 1.163976542879E+00 -1.055470627650E+00 1.689096713270E+00 2.240415842050E+00 2.132803831251E+00 9.177688309072E-02 1.715150717011E+00 5.600825053630E-01 8.247140492415E-01 1.958620137941E+00 -3.691919253257E-02 5.064780476768E-01 -1.983150832150E+00 -4.143431676244E+00 -9.549079070769E-01 -1.168527833162E+00 2.458451133547E-01 -2.483643498213E+00 3.039832770985E+00 -1.296388067957E+00 2.480103900008E-01 -5.291897141382E+00 -4.123769401805E+00 -6.188498855505E-01 2.050461441552E+00 -1.258167889369E+00 1.968024964015E+00 1.253350374611E-01 1.173269075030E+01
 2.997885295241E+00 1.207056944155E+00 1.468746525831E+00 1.197891661914E-01 1.890141404707E+00 -1.461241448905E+00 2.038907645080E+00 -5.758242065023E-01 -2.255885216254E-01 1.667639808364E+00 -2.151126971352E+00 2.012272791810E+00 3.396698169105E-01 -3.895442358557E+00 2.529125337719E+00 -1.730061812396E+00 1.196980495860E+00 4.531416447581E-02 -4.260590986162E+00 3.840781011964E+00 1.549854869421E+00 1.837834841498E+00 3.909230952704E-01 1.498104877209E-01 5.379473923075E-01 2.404895055833E+00 -1.092262282036E+00 -5.610308199563E+00 7.953387779810E-01 -4.365293576802E-02 -1.271776063793E+00 9.357169231349E-01 8.236142843773E-01 -2.868337477287E+00 -4.444701539758E+00 -2.673516229838E+00 -4.553850567715E+00 -2.327825815129E+00 -1.676406061179E+00 1.477339374677E+01
 5.885860745473E-02 -9.431424829267E-01 -1.133592664624E+00 2.389691561464E-01 -8.959542522699E-01 6.069901853281E-01 -2.468774570028E+00 2.179020775185E+00 -3.423203704900E+00 -2.421790883580E+00 -1.403699977381E+01 5.062423946349E+00 -9.300978028853E-01 1.846258581190E+00 3.628449596004E+00 7.178956154731E-02 -3.668102278801E+00 -8.008887222620E-01 1.201729480289E+00 -3.918110527743E+00 -3.307224547995E+00 1.051868068607E+00 2.181445131601E+00 -1.007652153069E+00 4.347098148547E-01 1.695815335750E+00 5.239202225789E-01 -6.341012680972E-02 1.869620209997E-01 -1.714575058169E+00 3.761392813296E+00 -8.838476588633E-01 3.761765436874E+00 1.455623573609E+00 1.582271955938E+00 2.595849832743E+00 -5.305108140284E+00 -1.838438768374E+00 -3.220794614778E+00 2.522187359153E+00 2.146499769836E+01
 -8.536740381470E-01 4.447192617777E-01 -4.101681934843E-01 -6.348128624625E-02 1.630623323693E-01 -1.254285663555E+00 -4.543130370984E-01 -7.209238803935E-01 -4.237756905631E-01 3.317148566690E+00 4.686854953978E+00 9.268185328881E-02 8.577204864516E-01 1.305163881212E+00 -4.652659033323E+00 -2.011339064089E-02 1.584143066955E-02 4.944169658476E-01 -5.496437522015E-01 -5.192359837743E-01 -8.850547335714E-01 -3.715797373975E-01 1.907437107458E+00 -3.691657534638E-01 -1.909117839453E-01 -1.305703287904E-01 -4.836698049842E-01 2.960231349432E+00 -3.998602772133E-01 -1.107162775597E+00 -1.257480510531E-01 4.910630088497E-01 -9.501824240280E-02 1.662988680488E+00 2.466847888193E-01 2.069376656757E+00 -5.080750697312E+00 -2.046228276757E+00 -3.122811266862E+00 -1.375655648322E+00 -3.834279683615E+00 9.144609478827E+00
 2.407601370171E-01 1.387567861655E+00 8.446610004415E-01 8.759280312938E-01 4.018152952433E-01 2.575535990334E+00 -1.196918362535E+00 1.815488891698E+00 -5.689636290107E-01 -6.788293397224E+00 -7.026619773190E+00 -2.161879964960E+00 -8.313138167213E-01 6.211872067198E-01 1.929637388668E+00 -3.968928918431E+00 -1.040327878688E+00 -2.174732274089E+00 -6.529519358497E-01 -6.735759860015E-01 -1.341625538401E+00 -2.906481848642E+00 -2.619151095590E+00 4.221569576171E+00 1.207271978369E+00 -1.104685132750E+00 -1.452380315945E+00 1.572588251278E+00 -2.693352294400E-01 1.264070321079E-01 -1.644445390838E+00 7.935322381799E-01 -2.562690506865E+00 -4.902081770306E-02 1.137205191544E-01 -2.987938088375E-02 -5.344911759485E+00 7.680814921054E-01 -9.311322123994E-01 -5.654390631899E-01 1.390249030319E+00 -9.425429583297E-01 1.846580804094E+01
 4.038585247950E-01 1.053956914177E+00 -6.818113010449E-01 1.212971239285E+00 -9.456287063781E-01 8.043038671853E-02 6.125198695874E-01 -2.233081134745E+00 -1.916704674592E+00 -8.391384400385E+00 -6.400570144315E+00 -4.964488595383E-01 -1.631871173772E+00 2.775011983866E+00 -2.074689773434E+00 4.185113489834E-01 -2.688134378065E+00 1.608898380491E-01 1.856947712156E+00 1.827588577951E+00 6.097674969728E-02 -2.301094079126E+00 -2.326569983498E+00 -2.419068496164E+00 -1.080833460471E+00 -1.924706765252E+00 -1.664300728588E+00 -5.583799832326E-01 1.992319417101E-01 -1.034848518591E+00 2.984938868321E+00 4.470597981889E-02 -2.425129013068E+00 1.482774396549E+00 -1.440597496698E+00 2.174473200079E+00 9.273546674154E-01 3.266087900981E+00 8.424641354559E-01 -1.553832027322E+00 -1.092846997418E+00 -1.301159488221E+00 5.643621179947E+00 1.244621728454E+01
 -3.459084719798E-01 1.947340656863E+00 1.013206447921E+00 -5.810230192766E-02 -7.962688174481E-01 8.876512495383E-01 6.721596834000E-01 -3.097012097106E-01 -5.282581259509E-01 -3.134244943108E+00 -1.078193288180E+01 -2.103973157166E+00 -1.666665279038E+00 3.349429411892E+00 -2.540860596386E+00 -3.238988060553E+00 1.928722904904E+00 -2.587202339874E+00 1.502754719527E+00 -1.267945327296E-01 1.347759027560E-01 2.396445396295E+00 -1.894373535447E-01 -5.074511793444E+00 -8.411956875046E-01 -3.125868647384E+00 -6.621575740893E+00 -4.688482213992E-01 -5.121430357900E-01 1.106705708306E+00 6.668819293068E-01 1.029554849161E+00 -4.198411132645E+00 1.594169297292E+00 -4.111489279939E-01 3.094398654431E+00 -1.399596830028E+00 3.371788660225E-01 6.791020839395E-02 -9.489718156359E-01 2.709888126137E+00 3.735690086656E-01 5.384653505908E+00 7.318752700405E+00 1.859122892364E+01
 -4.826142209550E+00 5.040016226829E+00 2.359939684913E+00 1.892013674641E+00 8.613717631631E-02 5.622850674329E-01 7.908403717175E-01 -4.591638315382E-01 -2.235215783598E-01 -1.163973343934E+00 1.182918137349E+00 -1.202529698558E-01 2.480048974439E-01 -1.665041306225E+00 7.853004730389E-01 8.360882312685E-01 8.947955192547E-01 7.587490263874E-03 -6.419659854427E-02 -1.619160085641E+00 1.827743561150E-01 3.401287302268E-03 6.238473984322E-01 3.334531132572E-02 1.460104617980E+00 -8.817131750530E-01 -4.832495942158E-01 -7.621379472223E-01 8.622633002978E-01 7.132562696063E-02 1.215071250624E-01 5.558858994308E-03 -8.993453955349E-01 -1.174234368051E+00 -2.233742031850E+00 1.615342594324E+00 -1.239707014688E+00 -1.524905720321E-01 2.575665497300E-01 1.444384999209E-01 -1.405316334412E+00 2.415341863334E-01 1.126499379184E+00 -4.084630342300E-01 -1.238963577711E-01 5.173365914186E+00
 1.453974291010E+00 -3.276064134777E+00 -1.212606608389E+00 -8.868710840682E-01 -1.888435338813E+00 -4.431850214482E-01 -1.898898066529E-01 -1.229386588768E+00 1.361999699075E+00 8.434037959403E-01 1.982172286304E+00 -4.760652350770E+00 4.222585100753E+00 -6.416416277489E+00 6.576311429073E+00 4.197308303446E-01 4.306564194617E-02 1.377796891775E+00 1.291957332426E+00 2.081390970639E-03 2.675190102132E+00 3.125889501036E-01 9.180139113451E-01 1.109122069048E-01 -1.690396904685E+00 1.067079544692E+00 -2.084770474766E+00 -1.897002482647E+00 2.113798820125E+00 9.157473821208E-01 -3.389982218791E+00 -8.649348707678E-01 2.393331879959E+00 -3.806376865799E+00 -1.713795468552E+00 -2.452035329160E+00 2.050448567927E+00 -1.103968043102E+00 4.114638017326E-01 1.105100963356E+00 -2.359645943592E+00 -1.437402715463E-01 -1.362228362559E+00 -1.622039480983E-01 -7.175894105101E-01 -1.649113113549E+00 1.323002339689E+01
 7.872778263686E-01 -3.084437835648E+00 -1.484502912378E+00 1.640680732132E-01 -6.531836931595E-01 -7.471972186305E-01 -2.155022778883E+00 -5.309299598666E-01 -2.290780431995E-01 -5.290738720709E-02 -5.381284987787E-01 1.599646271226E+00 -1.524841242890E+00 4.494916460803E+00 -3.361768258402E+00 -1.073461433462E+00 1.385007592394E+00 -1.253599155591E+00 4.084979531320E-01 -7.146218696273E-01 -5.328567413852E-01 1.824923548091E-02 -1.625934542426E+00 8.248347326903E-01 -1.476984728503E+00 6.397121753995E-01 9.432623721493E-01 5.414901388340E-01 -7.781506826154E-01 -2.768531863169E-01 4.238251402778E+00 -9.011738125590E-01 -2.330060491165E-01 2.028221673878E+00 1.896447263987E+00 -1.113706809837E-01 1.524456680832E+00 1.248200146395E+00 7.037873744163E-01 -1.582955465263E+00 -1.556613156436E-01 2.503516768611E-01 -8.381390994455E-01 1.546422135438E+00 2.732650433181E-01 -2.520092341161E+00 -2.384220553815E+00 3.979955780203E+00
 -5.542645287863E+00 -4.079998536965E+00 2.564581665397E+00 1.619973721356E-01 5.388741916900E-02 9.801703821402E-01 3.327879710222E-01 1.602965378468E-01 -1.722700000843E+00 5.617560424922E+00 -1.595938160851E+00 -2.814498109877E-01 -1.175728876340E+00 2.640102196263E+00 -3.514432628521E-01 -9.950397139623E-01 -1.527949129782E+00 -2.609468079305E+00 -3.530006017117E+00 1.899673762485E+00 -4.376762534501E+00 -8.106036429331E-02 -3.311670698531E-01 1.087107419987E+00 -3.483702667889E+00 -1.817031610639E-01 6.126016110118E-02 1.705880463839E+00 -1.816157161862E+00 -2.291929979903E+00 3.250925722035E+00 -1.465821581418E+00 -1.191392794484E+00 -6.715529511958E-01 1.965221030585E+00 3.561692303241E+00 -2.643886723960E+00 1.007885360230E+00 3.330239782463E+00 -1.986846101224E+00 1.404972328991E+00 -2.792047290359E-01 -7.402235266530E-01 1.358640324296E+00 1.488327747644E+00 -1.628511800620E+00 -3.591271154503E-02 1.936818104924E+00 1.129295165815E+01
 -2.181286992213E+00 -2.129817595730E+00 2.916052711942E+00 1.901367041681E-01 2.032864866767E-01 2.133119705893E+00 -4.501447606780E-01 -2.114569041033E-01 -8.707418133457E-01 1.702450049212E-01 -1.092849017042E+00 1.717176795261E+00 6.563674224993E-02 5.766444504226E-01 -7.082233118806E-01 -3.311683390285E-01 1.454083248216E+00 -1.864538350485E+00 1.276989948286E+00 -6.491363322537E+00 4.299580201741E+00 5.524872174948E-01 6.819989643159E-01 1.071103166805E+00 -1.149487872775E-01 4.857609922072E-01 -1.749945830465E+00 3.007701003399E-01 5.478088098655E-01 9.281997595705E-04 2.421666100872E+00 -8.955633746091E-01 7.537017999771E-01 -3.160527888078E-01 -1.545653311505E+00 -1.321344634992E+00 -5.433439020092E-01 -2.560930573740E-01 -9.627019940364E-01 1.928115027952E-01 4.791095375296E-01 -2.296339002232E-01 -6.708688902076E-01 -5.106281004154E-01 -4.918115107406E-01 4.157045558066E-01 5.569014186265E-01 6.973663377177E-01 5.877176584573E-01 7.653141734680E+00
 3.000326089041E+00 9.833817939594E-01 -2.836441225955E+00 -7.371710821249E-01 -6.224305454828E-01 -2.586790708170E-01 1.768376933407E-01 1.764263767396E-01 -8.320116094615E-01 -8.387302578041E-01 -1.199741972075E+00 -6.186861075483E-01 6.504970251152E-01 -5.486154744487E-01 8.062656640899E-01 1.193879463640E-01 -2.925846446597E-01 1.018396623283E+00 -2.603702301095E+00 3.050499292663E+00 -3.802308196531E+00 2.977727011574E-01 2.608159438890E-01 5.035310351044E-01 1.445882949725E+00 7.319939191879E-01 9.226662183890E-01 -1.839323365188E-01 -8.141803497747E-02 -1.166663679344E-01 -2.019794803940E+00 -6.202308307622E-01 5.321653118569E-01 8.753662040149E-01 9.129386152587E-01 9.783429438019E-01 5.696822131734E-01 -6.044307745224E-02 -1.182945226089E-01 7.149154057092E-01 1.484400008255E+00 -3.163334125054E-01 4.025331473390E-01 -4.188369267196E-01 -9.845713694255E-01 -8.432629467957E-01 -1.966885438990E-01 -5.169578069392E-01 -1.840219710151E+00 -4.788105673352E+00 4.483599123880E+00
 -1.971783956727E-01 -1.691211651951E+00 -8.958744552364E-01 -1.441408346308E+00 -1.149905332509E+00 -2.293698010745E+00 -1.066924506349E+00 -4.440763379364E-01 2.210143978142E-01 2.979036501663E+00 3.025590504528E+00 -1.859412947726E+00 -1.683372761006E+00 -7.042101460853E-01 9.804887314988E-01 -2.931831813235E-03 1.784408707885E+00 1.209475531652E+00 -1.203625060431E+00 -1.167533463062E+00 -1.552453811563E+00 1.493427277823E-01 3.629076652990E-01 -2.345386619040E+00 -5.654009354218E+00 -5.413300338493E-01 6.251555988468E-01 2.352782453351E+00 8.082246781207E-01 -6.514161118741E-01 -1.691897027886E+00 -7.313867895565E+00 8.395575989659E-01 1.070961704877E+00 1.288299886706E+00 1.066108202533E+00 -4.303410191757E-01 1.185989860728E-01 1.031078566262E+00 -1.699457678218E+00 -2.137619959131E+00 5.584430193587E-01 9.741627818517E-01 -1.116558927832E+00 -2.532022845021E+00 -6.979990865814E-01 6.979051108465E-01 3.575288159408E-01 1.233456996895E-01 -2.139277396749E-01 8.522075132125E-01 1.048605357109E+01
 8.211357851176E-01 -1.456407321070E+00 1.286166943810E-01 -1.559591198792E+00 -1.949799171305E+00 -3.788469285182E+00 3.359764980688E-01 -4.315910003183E+00 2.279553360549E+00 1.595517958965E-02 1.081797248307E+00 1.213984734103E+00 1.457659508925E+00 -2.067643577814E+00 1.969951829170E+00 3.122289981358E-01 1.864058647756E+00 8.072918632759E-01 -2.540038977111E+00 -7.936011796979E-01 -1.812449858514E+00 9.814651046514E-01 9.593609670026E-02 -2.706575713783E+00 2.101173325352E-01 8.753470374011E-01 3.407584447965E-01 2.931150923335E-01 5.640479483572E-01 -1.011033287863E+00 -5.652724270400E+00 -8.935072172915E+00 1.416572252082E+00 -7.073582514521E-01 1.108213254239E+00 8.145308859128E-01 -3.755181376773E-01 5.156133192061E-01 6.446382515095E-01 -8.922736289568E-02 -5.697896128882E-01 -3.608710510718E-01 2.093550916385E+00 -2.657533114684E+00 -1.641126349284E+00 6.575327367426E-01 -2.458090562819E-01 -1.013634447074E+00 -1.587225855216E+00 -2.288108882224E-01 1.470319124474E+00 8.024464917900E+00 1.537751999207E+01
 5.753882758099E-01 1.231720858226E+00 -2.892253282927E-01 -1.459030594651E+00 -3.424233736921E+00 -4.069788676343E+00 4.796924714932E-01 3.769351647313E+00 -4.692119979675E+00 1.457271616132E+00 -4.556554128978E-01 1.990000182354E-01 -1.866370781703E-01 -9.084318958281E-02 -8.406168924986E-01 1.139735292039E+00 3.864359265628E-01 6.149591877474E-01 4.561577811643E-01 1.536676078139E+00 -1.308355769909E+00 -9.681711088942E-01 9.283293670919E-01 4.479967094706E-01 -1.885685023344E+00 -1.109178591813E+00 -5.539561858665E-01 1.314405961222E+00 -1.374111796725E+00 2.635260170293E-01 -6.090757575473E-01 1.830158422715E+00 4.701988019077E-01 -8.970232458961E-01 -1.107936373985E+00 -6.213792927237E-01 -8.549438062048E-01 -1.015616182481E+00 -2.083774541550E-01 2.459318649382E-01 -3.069603532915E-01 3.664397819523E-01 -1.584044377610E+00 1.592866998793E+00 -2.151071583524E-01 -2.443208336688E-01 -1.165666064214E-01 6.104986223199E-02 -7.399978711540E-01 -1.098363630597E+00 1.304668899343E+00 3.789915347060E+00 -7.125519229838E-01 1.031301370697E+01