#BIOSYM hessian 1
@Type: Hessian Update
@Units
 distance: 	A
 energy: 	Kcal/Mol
#header
@natom 19

#label
L1      L2      L3      L4      L5      L6      L7      L8      L9      L10     L11     L12     L13     L14     L15     L16     L17     L18     L19

#element
Li Li Li Li Li Li Li Li Li Li Li Li Li Li Li Li Li Li Li

#matrix
57
 2.130759207805E+01
 4.039456989441E+00 2.974817608408E+01
 3.538272957139E-01 5.037664022437E+00 2.415137940353E+01
 -3.352997546374E-01 6.617815540638E-01 -9.496263732775E-02 2.454068992894E+01
 -1.071149515883E+00 -1.738468244100E+00 6.156315317423E-01 5.231518485398E+00 2.014822120498E+01
 3.766005813126E-01 -1.079733181634E+00 -1.266481667996E+00 -6.189172379766E+00 5.473174780740E+00 2.895631294937E+01
 1.044574101181E-01 2.525400337886E-01 1.493736360022E+00 -4.578892025858E-02 9.824629426828E-01 3.733382264262E-01 2.120243625116E+01
 -5.319548473271E-01 -8.615346993382E-01 1.092072601135E+00 -3.687158384834E-01 -1.226029610694E-01 1.343153419035E+00 9.415322035706E-01 2.219643356382E+01
 3.265147329732E-01 1.555546325470E+00 -5.815331684197E-01 1.039985592745E+00 -1.042981684277E+00 -1.701308170885E+00 -2.650062402370E-01 9.880852065940E-01 3.563791704137E+01
 -1.479341001590E+00 9.326747973188E-02 8.749846699544E-01 -1.879276829009E+00 -1.110839988817E+00 -1.724505649990E-01 5.151423918931E-02 3.296122450877E-01 2.361121648295E+00 3.465996100240E+01
 1.895428131548E+00 2.174570336174E+00 -4.741102718007E-01 1.690080107091E+00 7.621555234517E-01 -2.939616581014E-01 2.837603474106E+00 -6.549098037507E-01 2.070829145135E+00 -5.574852831460E+00 1.304747144982E+01
 -3.683015750856E-01 1.631925411336E+00 5.369725252459E-01 -5.786938349333E-01 -7.640489849472E-01 -2.999282135102E+00 1.346481596472E+00 8.991697227543E-01 2.099792665448E+00 -1.415609121648E+00 3.568399534309E+00 1.445800588012E+01
 -1.083355384754E+01 -5.625738355960E+00 1.978639890565E+00 8.657129558559E-01 5.332519926291E-01 -1.274039470483E-01 9.284274117112E-01 -1.658288671203E-01 -1.552485766340E+00 7.612924055217E-01 -1.309625735087E+00 6.349612344794E-01 1.966776792076E+01
 -6.094211994797E+00 -4.885099421464E+00 9.619089775534E-01 1.967035998696E-01 -1.492213447502E-02 -2.204833688577E-01 3.563702624144E-01 -2.801712674889E-01 1.312682684887E+00 2.459515775935E+00 -9.455730569655E-01 1.600247751274E-01 4.179405521240E+00 4.248516780157E+00
 8.468748443988E-01 -8.895206981542E-01 -3.862561761607E-01 7.722545532593E-02 3.563663549404E-01 1.034534626687E-01 1.112032873681E+00 -9.774608126285E-01 -2.492626586205E+00 -2.497583094080E+00 1.502807519949E+00 5.541885112786E-01 1.022569976385E+01 -2.473561504576E+00 1.695000947720E+01
 -7.781305789984E-01 3.388044287981E+00 -1.694775543667E+00 -2.772849738562E-02 -2.716108649092E-01 -2.470548987737E+00 -1.791612292668E+00 -4.183763377663E-01 -2.150087781533E+00 -5.556636005255E-01 -1.041770608924E+00 6.858827031102E-01 -4.647778335481E-01 4.443410486318E-01 7.561141491152E-02 1.635771843206E+01
 6.173306780444E+00 -1.926744009203E+01 3.517132979195E+00 -2.551457874069E-01 9.351024878696E-01 -7.394312628513E-01 7.505677541060E-02 2.980136737735E-01 5.923649557106E-01 -5.041718683856E-01 -5.759341997531E-03 -1.363931778344E+00 -1.160082676199E-01 3.890375441939E-01 2.458643368542E-01 -7.587209003017E+00 2.360180741992E+01
 -4.961968361869E-01 3.569607391650E-01 2.968662789794E-01 7.313766074155E-01 -2.093573671968E+00 -4.753979494933E-01 2.191928127665E+00 3.338444342661E-01 -7.095177500963E-01 6.616927103242E-02 7.420643453743E-01 -2.290133739242E+00 2.233720794510E+00 -4.528061935839E-01 -1.457836970412E+00 -1.358624159751E+01 7.881647500101E+00 2.286573111278E+01
 7.618461118125E-01 -6.346319314957E-01 -9.588460296357E-01 1.849585859717E-01 -6.947762728147E-01 -8.065474812564E-02 -1.300308454456E+01 -1.076152164996E+00 8.965970490465E+00 6.793253572509E-01 -2.400104049437E+00 -9.735009009984E-01 -1.534558023485E-01 1.135937989224E+00 -2.420208494258E+00 -6.116059204640E-01 -1.068842867521E-01 -1.734444853080E+00 3.064281616132E+01
 -9.785041368997E-03 -7.461001818249E-01 -7.264660887511E-01 5.752958545256E-01 1.219142756739E+00 2.502108603207E-01 7.285156661880E-01 -1.821665838001E+00 -1.925225598495E+00 -3.170798961517E-01 -2.647272271778E+00 -5.212031457800E+00 -1.343446536197E-01 -1.148688804331E-01 1.518229143764E-01 -2.271354540083E-01 -1.201696889054E+00 1.520995600820E+00 9.177121164059E-01 2.603313371134E+01
 -1.027853844770E+00 -4.939986212894E-01 3.340341502897E-01 -1.014854790109E-01 2.065230980597E+00 1.782444016760E+00 4.567441276014E+00 -1.224102353356E-01 -2.541043019828E+00 -1.677277006121E+00 -3.180198132277E+00 -6.185011665326E+00 -1.173974509674E-01 1.757680774769E+00 -3.126388244763E+00 7.878112480879E-01 -9.930228047455E-01 -1.125732112928E+00 7.760598388025E+00 -3.415067832072E+00 2.155796276251E+01
 -3.401081831690E+00 2.165345820737E+00 2.743476174570E+00 -2.836868540985E+00 -4.741326609704E+00 -5.861051016130E+00 -1.011417407899E+00 -3.136847175223E-02 3.583269667442E+00 6.005164379419E-01 1.284840821013E+00 3.050930322395E+00 -4.021811046395E-01 2.489457051739E+00 -2.045715404095E+00 -2.016411841973E-01 -2.561229674091E+00 -1.860741214969E+00 6.909440438603E-01 -1.570223116955E+00 -8.544500253038E-01 3.639592241170E+01
 9.754187419188E-01 1.483726249004E+00 -6.910841640027E+00 -1.512690266886E+00 1.662067115875E+00 -1.178872906711E+00 -1.048652534564E+00 5.906886910184E-01 9.136639556651E-01 8.918698318494E-01 -2.055063089479E+00 2.109014457144E+00 4.787570460998E-02 -1.110821217496E+00 1.309814534694E+00 -1.314257478894E+00 -1.282317625759E+00 4.362479328279E-01 1.519346520060E+00 8.183742406462E-02 2.038892548557E+00 4.820156635852E+00 2.057123384924E+01
 5.896704700870E+00 -3.006884560201E+00 -1.046682052240E+01 -2.406943199485E+00 -3.633397273153E-01 -3.799278341320E+00 -1.507365606751E+00 -1.223759578293E+00 -6.378093465427E-01 -1.257686608040E+00 1.521572450701E-01 7.195622512271E-01 -7.938446063923E-01 8.314293260043E-01 -3.759777260547E-01 -9.883804855931E-01 1.847128987989E-01 2.306085611726E+00 4.024722648114E-01 1.985380620575E+00 -4.741360339417E-01 -8.043759093595E+00 3.984497768659E+00 2.738488758014E+01
 1.709526825791E+00 -6.585834582550E-02 6.220961706974E-01 -3.743900171287E+00 -1.059948904358E+01 -1.433092494318E+00 2.353880598341E-01 -1.332072010175E+00 -2.517290196370E-01 -1.062321267123E+01 2.829212906006E+00 -7.327536709554E+00 3.850319149702E-01 -1.921582027319E+00 3.490672057163E+00 -3.154331605594E-01 6.711068913180E-01 1.395191904353E-01 -3.682456207155E+00 3.297152761566E+00 -1.370419214595E+00 -1.527235905711E+00 -1.525742496478E+00 4.126272463001E-01 4.140550239128E+01
 -8.273311910830E-01 -1.331345168366E+00 -4.554073126834E-01 -9.274304036174E+00 -7.269992194325E+00 -1.111368808547E+00 -6.537579266078E+00 -7.978979097450E+00 2.156040791315E-01 5.761936849708E+00 -4.584925963523E+00 1.976825157969E+00 -3.957838364497E-01 1.893175157235E+00 -7.134382681451E-01 2.078327035590E+00 -1.959654977599E+00 -2.406340472401E+00 5.101973494670E+00 -7.514974750065E-02 -3.073326736195E-01 -4.061989945868E-02 -1.106968552576E-01 4.577533173743E+00 5.346095321926E-01 4.856180727932E+01
 3.337023748912E-01 -2.325634355800E-01 -1.551869614497E+00 -2.318817488974E-01 -1.821091123256E-01 2.356532603371E-01 1.090335121398E+00 -9.962166473578E-01 1.102484109009E+00 -7.849037968650E+00 3.458891798920E+00 -3.250233994991E+00 6.142884953435E-02 -1.135307346966E+00 1.477647713778E+00 1.798946525458E+00 8.829456860277E-01 1.678878938961E+00 -1.215712997096E+00 -1.025873076290E-01 -4.063373297524E+00 -3.160174907761E+00 9.892161520885E-01 -3.736358974524E+00 -3.207124626521E+00 2.417494748632E+00 4.285440042879E+01
 2.059960918563E-01 -1.563561678926E-01 -3.616053400362E-01 -7.803057551113E-02 8.158906972288E-01 8.535076414119E-01 -4.209287903524E+00 5.382246453108E+00 -4.774562300076E+00 -2.175203002801E+00 2.743917349069E-01 2.576616075230E-01 -2.482712651096E+00 -1.066225826096E+00 2.397365217761E+00 1.272231002756E-01 5.068178571900E-01 2.048810456801E+00 -1.775792921355E-01 -1.996824788071E+00 -1.715032396433E+00 -1.210961534728E+00 3.448946930916E-01 -1.070230791302E+00 -2.027346161313E+00 6.651358076729E-01 1.201435324351E+00 2.846650266867E+01
 -1.470900630190E+00 -5.604649453263E-01 9.341710859671E-01 1.559113431225E-01 -2.822613789637E+00 -1.456286183920E+00 2.633687168240E+00 -2.484365365675E+00 5.440494624862E+00 6.795802368954E-01 1.332512433922E+00 7.721661652597E-01 8.088806456083E-01 -6.696161654278E-02 -1.143163718286E+00 -9.921196686874E-01 -4.619689815435E-01 -1.541064754304E+00 -1.677988544034E-01 -1.210931093617E+00 -4.430384075840E-01 3.655220139399E+00 1.621768570862E+00 -2.629141845004E-01 -1.087776999514E+00 2.946027251160E+00 -1.135209582565E+00 -5.852349747745E+00 2.984721591080E+01
 1.354575621059E+00 -1.023387587361E-01 1.084207845710E+00 -8.224732377881E-01 -1.614910469052E+00 -4.645730812054E-01 -6.450525329839E+00 5.164143888350E+00 -9.338465895700E+00 2.890308840042E-01 -1.096086212388E+00 8.232701894628E-01 4.420534505642E-01 -3.143411401407E-02 -3.456159126395E+00 1.973344177031E+00 1.823179533416E+00 2.144007561472E+00 2.062086987982E+00 4.316364231824E-01 -2.715201095834E-02 7.978871605997E-01 -1.706808073976E+00 -1.412279559655E-01 -4.390852200747E-01 5.986988246555E-01 1.700643345819E-01 -2.500515619634E+00 -5.983119916003E-01 2.424353483059E+01
 2.451666997568E+00 -1.167146012657E+00 1.196765056788E+00 1.738413851681E+00 1.455958606369E+00 2.541150531805E-01 -1.527833915816E-01 4.635518246665E-01 -3.972356415467E-01 -2.032199429070E-01 -7.886044351898E-01 -8.478216589618E-01 -1.225170336724E+00 -8.062630895069E-01 -9.740088520495E-01 -3.384934325678E-01 1.371200887073E+00 -1.952049353484E-01 -9.517636904765E-01 1.530361197348E-01 3.884054130413E-01 -1.710554421227E+01 -4.166001503282E+00 2.173756041624E+00 1.420401119264E-01 -4.338110665998E-01 -1.869618212506E+00 9.536759705937E-01 2.052670372288E+00 2.626977927292E-01 2.320851989737E+01
 1.263469952146E+00 -8.964984978248E-01 -1.122661342035E-01 -6.393805992248E-01 2.946837685049E-01 1.020403983057E+00 1.127825499734E+00 -5.396621694069E-01 7.723647810893E-01 1.612074687279E+00 -4.610261182912E-01 -1.501241881940E+00 -3.257631689085E-02 1.737781705445E-01 1.597130986285E+00 6.419702627263E-01 1.674041796771E+00 7.026999421212E-01 -7.407343167045E-01 2.229252000862E+00 -3.047470378564E-01 -5.253535244243E+00 6.500934623736E-01 -1.418151091631E+00 7.784458701383E-01 -2.341809027827E+00 -3.707618059612E-01 1.102788659164E+00 -1.768186185187E+01 -1.089381116962E+00 7.378500005932E+00 2.885079146681E+01
 -1.619438149344E+00 2.274832699916E-01 4.856118359251E-01 6.217658765547E-01 -7.756221806278E-01 1.128755049842E-01 6.970546201489E-01 9.218911538971E-01 -5.744116629886E-01 1.829178318996E+00 8.135195569559E-01 4.594971778535E-01 3.815491488039E-01 3.209618604716E-01 1.993590932664E+00 1.073404054211E+00 -1.139210004534E+00 -1.665456105336E+00 -9.524411249669E-02 -4.506674793005E-01 2.259531805767E+00 2.815338878074E+00 1.009173975697E+00 -2.293384556680E+00 -2.592184414494E+00 -1.792877632529E+00 -6.467251094089E-01 -3.124443327975E-01 -7.469080434162E-01 4.429609800476E-02 4.115412060016E+00 -5.462925965804E-02 1.688759694802E+01
 -8.843379765255E-01 1.031461861252E-01 -4.445702249660E-01 6.942134803756E-01 -1.700047475984E+00 -6.795804739898E-01 -9.022879454193E-01 2.581399521019E-01 -7.345267366334E-01 8.348956516990E-01 5.730194008449E-01 3.999151787779E-01 -3.957206472932E-04 -3.207945017128E-01 6.994455163321E-01 5.095974912469E-01 -3.566528668602E-01 -2.161807085891E+00 -8.330841243315E+00 -3.707219712149E+00 -6.169333767674E+00 2.468685011295E+00 1.535290288752E+00 1.444201052127E-01 1.151838396160E+00 -1.076210305223E+00 -2.037993231500E-01 -3.350704351754E+00 4.030049177643E+00 7.036266403412E-01 -7.786445736446E-01 3.434905261476E-01 -7.254912631593E-01 1.354839021501E+01
 1.062217295832E+00 1.309062764748E+00 -1.461465368023E+00 1.505715090824E+00 -1.212776673861E+00 -1.133786331685E+00 -2.655067988933E-01 -1.110522154440E+00 -2.012506365683E+00 -5.018709399587E+00 1.735392912708E+00 1.960902773593E+00 -1.077913438751E-01 1.523419575016E-01 -3.952535705024E-01 2.524880024595E+00 1.544189726304E+00 2.324913807776E-01 -3.548229942024E+00 -2.713726304006E+00 -4.356699001806E+00 7.940437010544E-01 -2.797246649445E+00 -3.534944992802E-01 2.781201548294E+00 -1.462853654196E+00 1.224820103223E+00 5.552294799829E+00 -6.105223292595E+00 -2.465110564756E+00 -1.963862831135E+00 -1.351653163564E+00 4.990652330547E-01 2.289324574923E+00 2.652545404259E+01
 -4.134872992430E-01 9.957782773932E-02 -3.091816560456E-01 3.452051975913E-02 1.311218744863E+00 -8.151840278837E-02 1.824382507087E+00 -9.593152967098E-01 -8.825499255140E+00 -2.110987178454E+00 -1.058011844725E+00 -1.179086350078E+00 9.158358518498E-01 -1.486140149184E+00 3.186889798022E+00 3.838769621639E-01 -1.723056889183E-02 9.948676876243E-01 -7.214101518196E+00 -2.682656013361E+00 -4.390739175607E+00 -1.979174191674E+00 -2.630254453127E+00 -1.623884530672E+00 6.377942170241E-01 3.207847235092E-01 1.588774912097E+00 2.987152613868E+00 -1.247587308089E+00 -2.561936093852E+00 5.539670225858E-01 -1.065449981182E+00 -4.209999919947E-01 3.188056762936E+00 9.113929543012E+00 1.411136735550E+01
 -1.354350336448E+00 3.692497161809E-01 1.503408450264E+00 7.264703513386E-01 1.982847231129E+00 1.989535358708E+00 1.568493194563E-01 -1.042012438693E-01 1.807152252900E+00 1.469492602748E+00 -5.058805147186E-01 -6.641709526112E-01 -4.333225322842E+00 7.529174924800E-01 -1.078504299337E+01 -1.306927468984E+01 3.000579973163E+00 1.311200554694E+01 -3.133901588432E+00 7.709920292444E+00 -3.774203338346E+00 2.610449945437E-01 2.294507987440E-01 6.597945180662E-01 8.283483608935E-01 -1.626116929879E+00 6.527092494991E-01 -1.619945539441E+01 -1.897070545843E+00 3.904117691634E+00 1.617448336013E-01 1.457661183993E-01 -1.444304279094E-01 -1.942396627271E+00 -5.994324005682E+00 -2.614391341165E+00 4.580526542826E+01
 1.382457229693E-01 -2.947186197561E+00 4.589877032141E+00 3.501373999078E-01 1.368506712855E+00 1.281976657602E+00 1.011494815277E+00 1.018168197345E+00 -3.156407776185E+00 -2.586782110681E+00 5.760926336552E-02 -3.138194690040E+00 2.322661617647E+00 -1.811482037165E-01 3.310656577895E+00 4.849497777898E+00 4.122242738030E-02 -2.793434741364E+00 4.407897550237E+00 -6.649284987955E+00 5.381307877924E+00 -2.323388510657E+00 -1.501939480706E+01 -3.486192722950E+00 -9.726090342958E-01 -2.211852260966E+00 -2.650154634713E-01 -4.032822876771E-01 -1.806273619543E+00 1.141432988828E+00 -8.367464756475E-02 5.001536420767E-01 -2.828934006372E-01 -6.163098718757E+00 -1.379521340760E+01 1.734926623762E+00 -1.278211044908E+00 3.853079517125E+01
 8.809461946704E-01 1.512646570100E+00 -2.389026478358E+00 8.106043795038E-01 -1.855182158519E-02 1.798057826869E+00 -1.832718046514E+00 9.214337419634E-01 2.134420794597E+00 4.027754476219E-01 1.434440535351E-01 3.981756304415E+00 -1.298340258349E+01 8.811265422688E-01 -1.448861400224E+01 1.145905379124E+01 -4.832647069491E+00 -1.072163414395E+01 -6.402732875984E+00 5.277052562631E+00 -6.310518285471E+00 3.130249538290E+00 7.400920423228E-01 -8.306136010630E-02 1.386761086143E+00 -6.181278980848E+00 -1.521899744757E+01 4.504269119353E+00 6.981370952902E-01 -3.397748232099E+00 6.554595229464E-02 1.712248043269E+00 -8.489902780543E-01 2.253317862654E+00 1.488946718462E+00 -1.005201151631E+00 3.990710669269E+00 7.146726735199E-01 4.775043122646E+01
 -1.284774733382E+00 7.619032301199E-01 3.299676413704E-01 -2.954262045212E+00 4.924198030484E+00 4.835691562671E+00 1.413443081759E-01 -9.462046133869E-01 -7.951017953399E-01 -1.308522790505E+00 1.695090147794E-01 -2.300599338807E-01 -1.468561173719E+00 -2.942685882366E-01 -1.321376225754E+00 7.679152075532E-01 5.232747785354E-01 5.263755257791E-02 -2.623783674574E+00 -4.075928608861E+00 1.291281797479E+00 -1.068311677261E+00 -1.745618070190E+00 2.760121178450E-01 -4.734088131123E+00 1.231224846262E-01 1.254830510320E+00 8.275477580053E-01 -1.474481947475E+00 -8.928892705342E-03 1.459181361853E+00 7.945727480769E-01 1.976313593558E-01 -2.527158247693E-01 -1.146099439631E+00 3.254376699880E-01 -1.146734566654E+01 -1.771794783687E+00 -3.566730693463E+00 1.965153336419E+01
 9.685650038717E-01 3.102067491421E-01 -7.792850337981E-01 1.085915415561E+00 -8.408555774844E+00 -5.982171076089E+00 -2.449675709954E+00 1.670602885829E-01 3.490207228545E-01 1.586597979683E+00 -4.126093180762E-02 -4.816306721172E-01 2.388625332068E-01 2.355074739570E-01 -1.959774344172E+00 -3.759325532653E+00 -2.345747344398E+00 -4.160880313720E+00 -2.133688756126E+00 -1.143788594498E+01 3.872186131595E+00 5.057569895977E+00 9.970775773950E-02 -8.680999594991E-01 3.415829123231E-01 -1.358679606882E+00 -4.301503945681E+00 -1.304849759895E+00 2.955722451998E+00 7.239179167061E-01 1.196296570955E+00 -3.563929914585E+00 2.093664893914E+00 1.422185999271E+00 -2.154948932192E+00 -6.816854306593E-01 -3.295026447180E+00 -6.325830614775E-01 -1.054741181730E+00 4.748341898234E+00 4.020402964098E+01
 9.990911347599E-02 5.153841651885E-02 3.246902047420E-02 1.437763596535E+00 -6.247302403414E+00 -6.070619852440E+00 -1.493194564664E+00 -1.693727332258E+00 1.379257509408E+00 7.466260210125E-01 -2.195325515301E+00 1.172088742592E+00 -3.170693453905E+00 2.247197898042E-01 1.449553103164E+00 2.766335486484E+00 -4.895877845465E+00 -9.899717074986E+00 5.269109484731E+00 3.242431031340E+00 9.911188522964E-01 3.265022329641E+00 -8.544819839562E-01 2.016610568063E-01 1.348817801370E+00 5.457736576368E+00 -3.796172130768E+00 -2.898804146788E+00 2.020325979323E+00 -2.537098375901E+00 -5.530947089455E-02 -2.366108706499E+00 -6.713765317644E-02 -5.420480960968E-01 -1.335821172173E+00 -7.741958837909E-01 -6.183637977446E+00 -3.044001004285E+00 -1.865154522088E+00 -2.119055525837E+00 5.218268462477E+00 1.987321509654E+01
 -5.244430818559E+00 -3.265174539670E+00 -5.956779472427E+00 -1.300959122484E+00 4.472717998973E-01 3.241874258681E+00 4.034491499516E-01 -4.003054359131E-01 -3.572496044522E-01 1.302585635596E+00 -7.452481076421E-01 -1.429305946152E+00 -4.974612715047E-01 -5.832691042410E-01 -9.959916937925E-02 -1.452517601104E+00 -7.205053988665E-01 1.930170676603E+00 6.486057708367E-01 1.097730644876E+00 -1.488804187467E-01 -1.232187520338E+01 -3.245805937296E+00 1.613126351751E+00 4.892575027491E-01 -1.402238375520E+00 3.731573396656E+00 4.322709553943E-01 -5.537225291312E-01 -2.637225205183E-01 -1.639358508317E+00 -2.258693361313E+00 9.856300407059E-01 -1.013319525926E+00 7.777022785342E-02 8.039315544953E-01 1.989239082682E+00 1.781346582511E+00 -3.024196050242E+00 2.550909700984E-01 -2.474673121322E+00 -3.593979667886E-01 1.895679883663E+01
 -5.743950782620E+00 -4.041311757739E+00 -5.716195613377E+00 8.093215060157E-01 -1.916701508141E-01 1.549960366705E+00 -5.057704233499E-01 5.324862596901E-01 6.112976404833E-01 4.625101480100E-01 -1.568925709248E+00 -2.819538508459E-01 -1.499705083527E+00 9.306766678779E-01 -8.467371257263E-01 2.726153921265E+00 -6.111079291215E-01 1.009313288458E+00 8.268429807783E-01 1.338391756402E+00 2.273634289422E-01 -5.415185322069E+00 -2.003616331770E+00 8.686094340365E-01 9.959731460688E-01 -7.505746993798E-01 1.479014423465E+00 6.291798631427E-02 1.945729370850E-01 -8.449547938008E-02 9.241166291861E-01 -1.913513265682E-01 -3.839027577232E-01 -3.042182781633E-01 -5.329574475884E-01 2.073192707756E-01 1.729612123947E+00 1.599249111881E+00 4.846795002519E-01 -2.151950406232E+00 -1.611307045507E+01 5.076586565934E+00 8.823693671463E+00 2.023585361688E+01
 -6.515718201976E+00 -3.291072294794E+00 -1.026093290141E+01 8.430056849431E-01 9.368390449077E-01 -8.336305080081E+00 -4.157013083882E-01 -1.247997511274E-01 5.105725958381E-01 7.046403060876E-01 2.576584978520E-01 -4.086581627332E-01 -4.765826279524E-01 -7.477152316891E-01 -1.476323478528E-01 6.138565366676E-01 -9.797826033771E-01 -8.755277043375E-01 -1.480944439500E+00 -9.176616014713E-01 -4.202562912205E-01 2.411077808850E+00 3.482750820053E+00 -1.709086447819E+00 -6.429585909301E-02 -4.285238262747E-02 -1.307994656982E-01 1.122883580726E+00 3.384117907073E-01 -4.972696155755E-01 9.301750923058E-01 6.097547500263E-01 1.018581643930E+00 1.120125374805E+00 -6.074338052939E-01 6.037873227693E-01 -1.820315344182E+00 -1.899346503519E+00 1.855485016816E-01 1.157568504653E+00 5.591445847456E+00 -4.686055512282E-01 1.952348318564E+00 -2.386068686611E+00 2.042862193702E+01
 -7.009777570645E-01 -1.379801246228E+00 9.889496419192E-01 -1.014076723613E+01 4.248101416477E+00 -2.647740798215E-01 6.404486342348E-01 9.677158447752E-02 -2.786715724830E+00 2.817082039224E+00 -1.355267350694E+00 -1.483584992561E-01 -9.898357000560E-01 3.274283465669E-01 -2.123654035384E-01 -7.364724680427E-01 1.228338057605E+00 6.212802079196E-02 -1.291739623510E+00 2.796605223072E-01 1.049537551435E-01 -1.756215087515E+00 7.652682734294E-01 1.713027575655E+00 -3.787782262458E+00 7.178283640890E+00 1.688526378840E+00 1.170451672161E+00 -9.062286602049E-01 -5.848932248881E-01 -6.219192688026E+00 -3.046438684562E+00 -6.297782189720E+00 3.652218117463E-01 -1.392556833396E+00 1.291683456772E+00 2.213862655228E+00 5.496965818288E-02 -5.237066065960E-01 3.581733832872E-01 -1.423561605888E+00 -2.621040021685E-01 6.425654238852E-01 -6.289563040883E-01 -5.164747483215E-01 2.512838284321E+01
 5.475843680336E-01 1.536919912576E+00 1.070994925350E+00 1.549153131377E+00 -2.985724218789E+00 1.333466720355E+00 1.635365170235E+00 -1.777867118471E+00 7.259978746984E-01 -1.142318617463E+00 1.384035050315E+00 2.307520394567E+00 -3.921166001488E-01 -9.589708340237E-01 1.065251072266E+00 -2.073726613653E+00 6.884421723904E-01 2.406206214214E-01 -2.943226663146E+00 -9.602738650522E-01 -1.354011492599E+00 2.431131666887E+00 -1.689708526293E+00 -7.802174294730E-01 6.379262681449E+00 -1.462719998213E+01 1.054616202677E+00 -1.682333265699E+00 -1.504414314369E+00 -2.882706997857E-02 -6.438918467717E+00 -4.977437288447E+00 -6.496980661583E+00 9.563490815789E-01 2.002857099524E+00 -3.629749090956E-01 3.887361039384E-01 -4.181468913228E-01 -1.175155159182E+00 1.194108702306E+00 1.778518032893E+00 -8.346367295177E-01 1.295769919919E+00 -3.822124020277E-01 -1.643862325806E+00 -5.133568787895E+00 2.970252795143E+01
 -3.117402536230E-02 -8.373351023379E-02 -1.399321750338E-01 5.272761020870E-01 1.155936809850E+00 4.142175782925E-01 -4.486377268342E-01 -1.215043726299E+00 4.388373925702E-01 -1.248292863574E+00 6.181900938609E-01 1.520778448396E-01 -7.131120514422E-01 2.800668842300E-01 -2.019849784594E+00 -4.093741025336E-01 2.399660463027E-01 1.806654414573E+00 2.395014293838E-02 5.691515758525E-01 -1.958831139495E+00 2.925911201285E+00 -2.315444083265E+00 -7.274007504430E+00 3.902766869089E-01 -3.400812293666E+00 1.865586480392E+00 -8.801164148950E-01 -1.195800986031E+00 -4.863344773224E-01 -5.694588685835E+00 -5.870813237129E+00 -6.588566392753E+00 9.236343057035E-01 1.163831221660E+00 2.005866960607E+00 3.682990993498E-03 3.040349725640E-01 -3.113133055078E-01 -8.608016759128E-01 -9.129762000484E-01 4.832012041213E-01 -3.498760521477E-02 3.606780247699E-01 -6.450709054499E-01 9.457452164556E+00 1.816738593631E+00 2.573442073488E+01
 1.169351025172E+00 8.618022291463E-01 -9.288603962823E-01 -3.246876456817E+00 5.139511097017E-01 5.390991488158E+00 -7.098401977256E-02 -4.383301828051E-01 -8.777401895501E-01 -7.579007190451E+00 5.890491618105E+00 3.306201277389E+00 -1.151886004639E+00 -9.439240237142E-01 2.911683867222E-01 5.733583117576E-01 -2.233822508456E-01 -2.469371012154E+00 1.124518927305E+00 -1.323636704872E+00 3.448017152729E+00 1.081753498455E+00 1.229465403292E+00 8.640615623083E-01 -1.669877513119E+00 -7.057388584316E-01 -1.964598499999E+00 5.592287589914E-01 -3.249574208731E-01 -9.717168588771E-01 -1.532373332659E+00 -2.809936909752E+00 -4.952901600851E-01 -1.908600942609E+00 4.154328021241E-01 -5.568643272878E-01 -4.602041373384E-01 -6.390171618391E-02 1.855164168397E+00 1.858838964693E+00 1.177416556635E+00 5.164577980285E-01 -1.163283278246E+00 -5.096946963308E-01 -1.801384532570E-01 -4.377664554585E+00 4.386994115037E+00 -3.941169011589E+00 1.942713226919E+01
 -5.629297929806E-01 -1.828025151828E+00 -6.974288881936E-01 -3.141049307493E+00 -2.022832116156E+00 3.036178100391E+00 1.881397603645E-01 -1.482394920719E+00 -1.052261260771E+00 7.687905077332E+00 -8.026867077594E+00 -2.772309613949E+00 1.010232433643E+00 8.461381604485E-01 4.213562471101E-02 -8.019539804786E-01 2.353422161184E+00 1.010104283206E+00 -1.343944474885E+00 -9.437216401115E-02 -1.360469675401E+00 -2.289289170154E+00 -1.661391861196E+00 -1.771024217543E+00 -6.828786568279E-01 -4.286319600582E+00 -4.685802034101E+00 -1.368940589592E+00 -5.033061347072E-01 -7.442235924377E-01 2.308156654344E-01 1.231525978017E+00 1.529721022414E+00 4.339130571375E-01 -4.690447293913E-01 1.352167216944E+00 9.103078709781E-01 -7.369540783545E-01 -2.196726106758E+00 3.012345966897E-02 -5.829788801368E-01 6.371129086850E-01 2.528507425421E+00 1.629396838311E+00 1.293555539422E-01 5.249558842886E+00 -3.395098235163E+00 8.132246080182E+00 -4.781231130875E+00 4.025959317173E+01
 -3.431508219852E-01 7.130873937595E-02 -8.266295785224E-02 3.413751477675E+00 -3.225534275010E-01 -9.632907011567E+00 1.775687876576E+00 9.746204458777E-01 -5.001884007961E-01 2.271374078329E+00 -3.474562120365E+00 -1.607318410900E+00 1.783396991986E+00 1.228769922528E-01 1.273408228545E+00 -6.904576333529E-01 -2.376811823697E-01 -9.327424234991E-01 -5.635802556185E-01 -1.362662141842E-01 7.929048436708E-01 5.617573798693E-01 -1.098445106845E+00 5.176670445639E-01 6.994226467284E-01 -3.657569823473E+00 -1.016784094973E+01 -8.866599397269E-02 -5.270406839952E-01 -2.807043460313E-01 -6.380292271128E-01 1.238494010048E+00 -4.448877689245E-01 4.430397065373E-01 1.267177795734E+00 -1.876910854037E-01 2.473228581187E-01 -1.234623444781E+00 -1.255893688496E+00 -1.415579791540E+00 7.342995080595E-01 8.399615385487E-02 -7.469991065325E-01 -5.086725841180E-01 4.863638822171E-01 -4.288292482568E+00 4.607635089670E+00 -9.101786105764E+00 -2.005853760758E+00 -9.534356597733E-01 3.304832085304E+01
 -3.057593831975E-01 1.250148168238E-01 4.001956633082E-01 4.472870269248E-01 -2.970685637806E+00 -1.749326203378E+00 -8.271681348018E-01 -1.154157473599E+00 -3.516413053849E+00 -1.710859055719E+01 -2.992734174412E+00 4.586398151798E+00 -1.797346256897E-01 -1.093360777507E+00 1.859457999412E+00 1.192504901440E+00 -2.271279517775E-01 2.717773764603E-01 -4.886427197805E-02 -1.333810846649E+00 -2.550703054586E+00 3.024225296275E+00 4.017829407521E-01 -2.181685633061E-01 1.907442653953E+00 4.803987253394E-01 1.081081421387E+00 1.567830592185E+00 -1.158140091159E+00 7.075288760144E-01 4.068113095883E-01 1.515083632128E+00 -1.256189765023E+00 -4.851069107619E-02 3.957289458322E+00 8.741218016970E-02 -1.876661092502E+00 3.600710616518E-01 1.730742671163E-01 2.993643637027E-01 -1.807102795898E-02 1.177430600445E+00 -1.692371660116E+00 -1.044377827906E+00 6.525049424871E-01 -2.174200339839E+00 1.848785242683E-01 -9.947471037954E-01 -1.511270440669E+00 -3.375029060247E+00 9.915260396045E-01 2.627567922803E+01
 -1.640926003105E-01 1.412536688311E+00 -1.599015819480E-02 -7.468370166790E-01 -1.103609083198E+00 -1.910598102330E+00 -3.035723634494E+00 -1.749738342226E+00 -5.243461329365E+00 -3.508479793929E+00 -1.323804890866E+00 7.565550943560E-01 3.304747785016E-03 -6.225282787558E-01 -5.093853545470E-01 1.550852077572E+00 -2.375713732882E+00 -1.073104563293E+00 -7.308460808481E-01 -1.687796066030E+00 2.319471408501E-01 1.017377536564E+00 1.142882653368E+00 1.912212200375E+00 -1.289596862209E+00 -1.715409455302E-01 1.981774851424E+00 1.430334746683E+00 -7.773687878730E-01 7.326454466242E-01 5.219011046219E-01 4.926684821094E-01 -8.476543191721E-01 1.225409006667E+00 8.985504563716E-01 -3.208836564254E-01 -1.557540329822E+00 -1.056852202596E-01 1.819730503905E+00 6.054790973260E-01 3.694055329695E-01 -9.079708200022E-01 -1.294922052934E+00 -5.331016541177E-01 1.328010790852E+00 -6.903347436061E-01 6.977200347419E-01 -7.003271084089E-01 -3.930374788454E+00 -1.985068253046E+01 4.025899157078E+00 4.328974926752E+00 3.091074776253E+01
 -2.599202100619E-01 -1.275395808056E+00 1.017486186457E+00 2.783280916583E-01 1.102069116001E-01 1.500516383538E+00 -4.171415745184E+00 -3.657305808868E+00 -1.462769832009E+01 7.114095503086E+00 1.349559998596E+00 -6.219662341189E+00 5.160925399915E-02 4.991944993729E-02 1.845076543120E+00 1.837085208858E+00 1.094291053284E+00 -1.011366036175E-01 -1.376209004365E+00 1.899683260748E+00 2.709171477808E+00 3.420692977462E-01 4.967142382656E-01 -7.164447021315E-01 4.662836767300E-01 3.307176490203E+00 -5.179055187063E+00 -3.516747910206E-01 6.901088298526E-01 2.088948003437E-01 1.640356059160E-01 2.109336459605E+00 -5.682315728891E-01 -1.115535573729E-02 -1.942812056181E+00 -6.624091429771E-01 -1.281199216258E+00 1.013605423216E-01 -8.917530162271E-01 4.234450758467E-01 2.525203539756E+00 -6.124715582100E-01 -1.019630832286E+00 -1.859227174562E+00 8.080018143881E-02 8.122478350944E-01 -1.941236627183E+00 -2.005015141793E+00 7.725777673662E-01 1.743688171556E+00 -2.216104399748E+00 3.007620882165E+00 -7.179318210918E+00 3.122500066401E+01