#BIOSYM hessian 1
@Type: Hessian Update
@Units
 distance: 	A
 energy: 	Kcal/Mol
#header
@natom 19

#label
L1      L2      L3      L4      L5      L6      L7      L8      L9      L10     L11     L12     L13     L14     L15     L16     L17     L18     L19

#element
Li Li Li Li Li Li Li Li Li Li Li Li Li Li Li Li Li Li Li

#matrix
57
 2.192459904012E+03
 -3.627902421343E+01 2.031621814765E+03
 1.548769389705E+01 -8.415080077025E+02 2.778393991637E+03
 1.377217069679E+01 1.405507536739E+00 -1.481496137942E+01 2.194449794657E+03
 -1.093510486166E+01 -2.346331770670E+01 6.505912964848E+00 -5.935380562150E+00 2.065915333148E+03
 -3.006188802377E+01 -1.100250128068E+01 -1.238481484196E+02 -1.203787471466E+01 8.088889520933E+02 2.725401214090E+03
 -5.117675110070E+00 7.905994874732E+00 7.570412768938E+00 -1.209687287655E+01 1.584094321641E+01 7.576403844896E+00 2.139598372814E+03
 -5.490143699320E+00 -6.338327076079E+00 1.141061021684E+02 -1.456914069510E+01 -1.393474025726E+01 1.259118697426E+02 -9.234860671768E+00 2.516871471111E+03
 4.371639525406E+01 -1.795093510322E+01 -1.914535301209E+02 4.361192290019E+00 1.019814759302E+00 1.817586880093E+02 7.106345022310E+01 8.128630093827E+02 2.617292331243E+03
 -3.621773510214E+00 4.109647627067E+00 3.853886244854E+01 -1.648418545034E+01 3.425583371933E+01 5.939812373218E+01 2.880663234877E+01 3.325194855842E+00 -3.495063418478E+01 2.126714018880E+03
 7.682713802653E-01 -1.274723096906E+01 -1.121984458795E+02 5.378272683442E+00 7.166718094840E+01 -4.189605132777E+01 7.093256704465E+00 -6.704436541001E+01 4.477929267900E+01 -3.490254877212E+01 2.560508821385E+03
 2.005458907994E+01 4.805695349472E+00 1.746436564377E+02 7.397060328967E+00 -2.547969181417E+01 -2.587621611838E+02 1.628802648339E+01 -2.201138355867E+01 -1.946367858196E+02 8.216908532517E+01 -7.573109598092E+02 2.623507324258E+03
 2.436110948958E+01 4.762378678322E-01 -1.946767068196E+01 3.435813565752E+01 -4.083616353796E+01 -1.892085931209E+01 1.259962460591E+01 1.526210603235E+01 4.137224384732E+01 1.289848624898E+01 -6.385893039105E+01 4.010753693976E+01 1.975981588180E+03
 1.812694136878E+01 -6.526532896769E+02 -4.886426470327E+02 -2.614425583557E+01 -7.016577269658E+02 4.763905013521E+02 -2.785864990595E+01 -6.020322781228E+02 5.260462403158E+02 -3.991556776720E+01 -6.891866227593E+02 -5.400102362099E+02 -6.725482044542E+00 2.856127899194E+03
 -1.287943440725E+00 -4.818848724539E+02 -3.907179335511E+02 2.348261346249E+01 4.975016816602E+02 -3.732564180923E+02 1.700711767779E+01 5.476322277873E+02 -4.329524064672E+02 -1.514240105903E+01 -5.443794911531E+02 -3.962712041854E+02 -2.976686236814E+02 1.103619431183E+01 3.074357286820E+03
 1.087734884530E+01 2.303336561802E+01 3.501992164507E+01 7.740754480807E+00 -2.861041770154E+01 3.071013098596E+01 -6.677227591056E+00 -1.304518809566E+01 -6.246256163112E+01 -2.323541633338E+01 -4.287200882676E+00 -4.517232550510E+01 3.590266861094E+00 2.609920678928E+00 -1.538481612624E+01 1.372574640873E+03
 1.711730894398E+01 8.456354672791E+00 3.952410747212E+00 4.264838911741E+00 2.472011233869E+00 6.950962790753E+00 2.320369163771E+01 1.227391515785E+01 -9.448766451452E-01 4.396068287740E+00 2.432081198866E+00 2.634015499618E+00 5.197623459574E+00 -1.139856672586E+01 3.268169180899E+00 3.978036721637E+01 2.732920981601E+01
 1.490032046497E+00 -7.778392391968E+00 -1.481004762506E+01 -3.274281338262E+00 6.616595967668E+00 -9.025285188569E+00 3.474856790422E+01 7.347642973040E+00 -4.062872812382E+00 3.923206890630E+01 9.902380024479E+00 -3.038331936588E+00 -3.109632854637E+00 -1.604893421534E+00 4.250397271276E+00 -3.715051469835E+02 1.128027790230E+01 1.223325342347E+03
 -1.127905111267E+01 1.498595405518E+01 -5.626751343505E+00 -3.618787993285E-02 -6.520103505434E+01 -9.950907566241E+00 -1.840921205570E+02 3.101989105645E+02 2.036536011854E+01 -1.774239240152E+02 -3.587178153687E+02 4.232844402288E+01 -5.601255091514E+02 5.986930341745E+01 5.594070447882E+02 2.430191740438E+01 -6.511499010929E+00 -2.370363175156E+01 1.931189999107E+03
 6.945963615404E+00 -3.155670805374E+00 -3.572234971077E+00 -4.658838074119E+00 -4.025487317935E+00 -1.232329142832E+01 2.430030956187E+02 -2.849302073280E+02 6.672549803800E+00 -2.420357676630E+02 -2.492351787549E+02 1.407395753818E+00 -2.425928033413E+00 3.675968823097E+00 -1.216349983304E+01 -7.164821047424E+00 -1.631525093539E+00 2.079069451359E+00 -1.654995644730E+01 6.363062175369E+02
 9.152399456032E+00 4.060766097422E+01 -5.601355883756E+01 3.395058168940E+01 -9.703980127287E+01 -7.243414404792E+01 -8.267482531307E+01 5.368596003601E+01 6.232761264986E+01 -7.774314968184E+01 -1.013739460760E+02 7.942941573151E+01 5.651700949897E+02 4.886859542915E+01 -4.760609989529E+02 -1.383625415583E+01 -9.043055557292E+00 1.198236683329E+00 3.490036038151E+02 5.270139523558E+00 1.265698006525E+03
 -1.403903730182E+02 1.716886278524E+02 -8.390849458157E+01 -1.470213733710E+02 -1.830931439294E+02 -9.376588645083E+01 -1.569246682857E+00 3.909416173499E+01 1.012274442305E+02 1.088796234536E+01 -4.698210016448E+01 8.753710812923E+01 -2.401057482328E+02 1.425266624193E+01 -2.307493160037E+02 2.847630096729E+01 7.577043027737E-01 -6.005500019268E+00 7.871251805975E+00 -7.272344602037E-01 -6.838979381382E-01 1.612587955297E+03
 2.037862191805E+02 -1.859711321647E+02 4.342678834287E+01 -1.884230394448E+02 -2.215261581217E+02 -7.584298846858E+01 -2.014311735518E+01 -7.635736210224E-01 -7.926254626284E+00 -1.292233695224E+01 -2.492652233490E+01 1.470675207724E+01 7.335858202179E+00 1.940149520631E+01 -5.381805417412E+00 -4.297423204956E+00 -2.305281248295E+00 -5.684971087482E+00 2.362903709172E+01 3.625230816641E+00 2.715112156030E+01 9.245499141279E+00 4.263733995498E+02
 -3.095571256522E+01 1.836054098588E+01 3.785837588395E+01 -3.279493226295E+01 -5.611620778572E+01 2.359693730388E+01 -1.401521088804E+01 3.972265431766E+01 -3.033128648116E+01 1.048213801049E+00 -5.904394500166E+01 -7.902964975300E+00 -2.249208874387E+02 1.958697735310E+01 -2.302459078548E+02 1.061531323729E+01 -1.104447971751E+00 -1.585294457016E+00 8.425577731954E+01 -6.135666023044E+00 1.179557150879E+01 -6.736691920185E+02 9.920811840017E+00 1.311418661323E+03
 -1.367938220175E+02 -1.802426660966E+02 2.444091165465E+01 -1.089530444552E+02 1.891076902026E+02 1.036360099000E+01 -5.974304957895E+00 -6.700664095724E+01 -3.972240761721E+01 -1.346771458327E+01 8.492532856861E+01 -5.909671565061E+01 -5.248972372892E+02 1.027496038191E+01 3.694101397667E+02 -3.759437587468E+02 -3.149583762459E+01 -4.400011446764E+02 -7.403032104833E+01 9.957011707941E+00 -6.351253285279E+01 -3.746656787103E+01 3.410475204405E+00 -5.878149617497E+01 1.511244627643E+03
 -1.908967302503E+02 -1.549062425688E+02 -7.164752437317E+00 1.823176859086E+02 -1.930426638691E+02 -2.616503185994E+01 1.289958014069E+01 4.241360891935E+00 2.592886796467E+00 5.211219944712E+00 1.095382217042E+01 1.426804621095E+01 3.333714762426E+01 -1.021041540178E+01 -3.054907300975E+01 1.897039921767E-01 -5.788863042244E-01 -3.993737571555E+01 -8.822549540574E+00 -1.493391113740E+00 -1.077052875796E+01 -8.817650718423E+00 -5.036805101153E-02 1.300718765223E+01 -3.961695529384E+01 4.471364384425E+02
 -3.284342579455E+01 -3.181779166943E+01 -1.175019076363E+01 -1.336992077465E+01 1.603301370904E+01 -1.325294980362E+01 9.366703977463E+00 8.362614086151E+00 3.362824374709E+01 1.898299731020E+01 -1.624098281222E+01 2.735642169681E+01 3.654841698592E+02 -9.947053521781E+00 -2.848728080130E+02 -4.205735555136E+02 -2.910619395948E+01 -5.476252058017E+02 -5.906397605011E+00 4.531928364509E-01 1.332430543073E+01 -4.606302330574E-01 7.868941502794E+00 -2.358411093946E+01 3.483218570672E+02 2.980755814917E+01 1.229071540329E+03
 -1.112469978515E+01 -4.750982443684E+00 -1.177944172867E+01 -2.077594398523E+01 4.006514136698E+01 4.489949674871E+00 4.600932257669E+01 -9.901786030526E+01 -6.352236964557E+01 4.215446975284E+01 9.864385100805E+01 -4.285337275225E+01 -2.952751287160E+01 -2.754518471011E+01 -2.401949628187E+01 -8.498902360467E+00 1.350995462359E+01 4.633883940540E+01 -3.668379850567E+02 -4.266063045366E+00 -3.595016185476E+02 -1.916040883592E+01 -1.580833972811E+01 -3.469683525300E+01 4.265192909998E+01 9.730888248581E+00 -4.123808832025E+00 8.724364178373E+02
 -1.315399901228E+00 3.406068795512E+00 -8.881516990395E+00 -2.191666576033E+00 3.646325341806E+00 5.117175555758E+00 -2.842039700127E+01 -1.962501228546E+02 -1.983477853404E+02 3.304123136744E+01 -1.948201313872E+02 2.020634428146E+02 -1.705271836928E+00 3.873489640710E+00 8.570006008684E+00 -1.699356510578E+01 -1.244097222183E+00 1.520271509262E+01 -1.371664978178E+00 7.381629264000E+00 -4.742705384428E+00 4.248927065710E-01 -1.046829661444E+00 -4.919229760138E-01 -1.848356509417E+00 -4.501324992748E-01 -2.577065919315E+00 -1.634762613833E+01 3.314934802001E+02
 1.463775327975E+01 -1.737173660539E+01 5.633717080315E+01 1.518832603108E+00 2.329847427501E+01 4.524526978003E+01 -3.691542945005E+01 -2.235825060824E+02 -2.403748827568E+02 -5.247696723597E+01 2.283198491438E+02 -2.456994322510E+02 -1.466606746467E+01 -7.020606634549E+00 -6.623397271854E+01 -6.905170132414E+01 -1.817808365920E+01 3.020313104750E+00 -3.576440932263E+02 1.763793910612E+01 -3.022958923668E+02 1.691072295215E+01 -3.707457751917E+00 -5.306098331557E+01 3.939343867977E+01 -1.811449941919E+00 1.440987471779E+01 -2.043543661540E+02 3.223857101842E+01 1.378092877009E+03
 3.352636440272E+01 -9.837914136664E+00 6.025860967861E+01 3.060913320116E+01 -2.253893314895E+01 3.453938232979E+01 -1.745157367395E+01 2.468207441767E+01 -5.318562033933E+01 -1.613447603940E+01 -3.367012185104E+01 -4.660564025000E+01 3.149651912428E+00 1.152358384776E+01 2.604988950905E+01 -2.026117291107E+01 -1.557561044203E+00 -1.109817194169E+01 5.879512817981E+01 -1.336397844502E+00 2.671438748853E+01 -7.244800060415E+02 9.416848595929E-01 7.081795333635E+02 -2.789646891699E+02 3.507153250667E+01 -2.701784784791E+02 -1.370323986455E+01 -1.152394544154E+00 -5.584333083210E+01 1.031919553249E+03
 2.749899030035E+00 -1.538185781734E+02 1.735230845347E+02 6.176857055927E+00 -1.587286997603E+02 -1.735635201262E+02 9.098199910700E-01 4.090102749656E+00 1.428689094403E+01 -3.273386812488E+00 -7.854226133976E+00 5.529243836861E+00 3.114122781080E+00 5.111097210044E+00 -5.946390049600E+00 -2.850576905547E+00 -4.431337590296E-01 -3.534385184095E+00 2.635529316712E+00 -1.068791123888E+00 2.648781602822E+00 1.075819655698E+00 6.176420114708E+00 8.989206713784E-01 2.344325233633E+01 1.792495840560E+00 2.543592039851E+01 -1.076544940870E+00 -2.586449463271E+00 -5.900807577553E+00 -1.651446747809E+01 2.810250609238E+02
 -1.382733616562E+01 1.258322767523E+02 -1.612822293695E+02 -1.195307311759E+01 -1.418301046781E+02 -1.746208759782E+02 4.725063892157E+00 7.753301860247E+01 7.805503473021E+01 2.861561170664E+01 -7.483743420926E+01 6.703809962204E+01 -5.488158432663E+00 6.981315032468E+00 2.182544744094E+01 4.121559235078E+01 8.679867674715E+00 -1.155515558048E+01 4.578332053164E+01 -7.860888497114E+00 -3.245525116885E+00 6.414224861218E+02 -1.756937816510E-01 -5.386095526438E+02 -3.170968499053E+02 1.015209068392E+01 -3.088430628673E+02 -2.997603165619E+01 2.636243503148E+00 7.719152668326E+00 -3.375961991681E+02 -1.614214167329E+01 1.211005556041E+03
 -9.734692534867E+02 -3.625674845352E+02 5.802982480160E+02 1.882273215062E+01 -4.733273008472E+01 -3.656256808449E+02 -9.282603282005E+02 -3.407068812461E+02 -3.807977742020E+02 3.546578772224E+01 -1.172973611987E+02 3.988264235006E+02 -9.123622139337E+01 -4.208015006631E+01 -1.386207361321E+01 8.203982410413E+01 -1.169340510156E+01 -1.015762153512E+01 -2.530451326167E+01 -2.948214483171E+01 4.893677771100E+01 -1.134217752554E+02 2.201494835222E+00 2.897459029597E+01 1.639845872808E+01 -8.441976482821E-01 -6.560697066812E+01 -8.707988884576E+00 4.865812583471E+00 1.203566817358E+02 6.697149164082E+01 5.502659837353E-01 -1.449775559760E+02 3.533633184022E+03
 -4.705465319791E+02 -3.535067402568E+02 5.468362916638E+02 -4.099633712746E+01 5.473345159656E+01 2.065197564794E+02 -4.175414550633E+02 -2.819105311156E+02 -6.570068276134E+02 1.382192789407E+01 3.413789388426E+00 -2.047099934625E+02 -4.685267817875E+01 -3.871245049083E+01 3.777260839543E+00 -2.182255969029E+01 -1.200240277725E+01 -1.705144873363E+01 -7.380292072407E+00 -2.349002009965E+01 -1.192304266668E+02 1.775137812311E+01 -2.648406650976E+01 4.017544881640E+01 -2.812546364339E+01 3.920601809925E+00 3.782204376296E+01 -8.933230089161E+00 1.187250973308E+01 -4.138543055854E+01 2.774896328875E-01 5.130963095726E+00 9.325525742475E+01 -4.911614827789E+02 2.081785106321E+03
 8.745205482395E+02 4.324182979413E+02 -9.008871857965E+02 8.296184310476E+00 1.498565247222E+01 -1.185531754209E+02 -9.077411812479E+02 -5.392770360135E+02 -7.542203111661E+02 1.984677378120E+00 2.449899031553E+01 9.522248241551E+01 -1.557626871163E+01 3.287785653924E-01 -1.602074521127E+01 3.728944373348E+01 -2.034255191175E+00 -1.093625804673E+01 -9.480429974181E+01 -2.089788457572E+01 1.261642371498E+01 -4.498196884268E+01 2.817165202585E+01 -2.766067886714E+01 6.978432873037E+01 -2.165036335630E+01 -4.664416009859E+01 1.854680581650E+01 2.442649164016E+01 6.526615181500E+01 2.274870142903E+01 -2.055729623459E+01 -1.002301332165E+02 3.991946385891E+02 -4.017694576686E+02 1.907618081776E+03
 2.322898298994E+01 -4.306063630319E+01 4.164675561586E+02 -9.678450117844E+02 -4.740427484101E+02 -6.300852385898E+02 2.398166262257E+01 -1.118764866716E+02 -4.960569837662E+02 -9.192188231001E+02 -4.406305516403E+02 4.685051722305E+02 3.204822564945E+01 -2.742238599573E+01 1.963882442499E+01 -6.403228633641E+01 1.623628227403E+01 -3.470415614550E+01 9.504819236028E+01 2.782296760119E+01 1.515439444280E+02 1.242584515441E+02 3.883501892659E+01 9.821467323682E+00 -1.036640024447E+02 7.563250648596E+00 6.349789414958E+01 -4.739788233381E+01 8.612577960214E+00 -1.698909666191E+02 -6.680361499168E+01 1.487018972992E+01 1.665054284397E+02 7.636785181009E+02 -2.414594790315E+02 1.521131523915E+02 3.229148547011E+03
 6.584359158938E+00 5.422948208807E+01 -2.619614871866E+02 -4.173064746483E+02 -3.089807202648E+02 -5.847537228472E+02 -4.064176900083E+01 1.518102446364E+01 2.733431429941E+02 -4.353161319109E+02 -2.412425145449E+02 6.137840326443E+02 -7.975029637579E+01 -2.104196614067E+01 3.393958912941E+00 4.639440392322E+01 -2.463208258560E+01 9.393916841238E+00 -5.933650007091E+01 1.516839810921E+00 2.658717759623E+01 -7.001589901009E+01 1.152001962401E+01 -3.366095561041E+01 5.288703685542E+01 -5.405993630992E+01 -6.273919519453E+01 3.407858040020E+00 1.119330539834E+01 9.628419022874E+01 -1.489415094798E-02 9.311024939542E+00 -1.166054023213E+02 -3.329064898797E+02 7.122410815914E+00 -1.928646677683E+01 -3.050155517592E+02 2.033735219871E+03
 -1.943571181611E+00 1.160651888672E+01 -8.777518930517E+01 -8.869362699521E+02 -4.104000286829E+02 -8.817008251391E+02 -5.056883694507E+00 7.105324012109E+00 9.192009468325E+01 8.573811694750E+02 4.937789427225E+02 -7.923157772486E+02 -3.181876935224E+01 -2.413067235959E+01 -7.676720591165E+00 8.044225156657E-02 -5.536643853755E+00 1.574229668293E+01 -3.473245482997E+01 -1.484888538860E+01 -8.276329757090E+01 -4.337144401157E+01 1.369030470169E+01 -2.350410875991E+01 2.615557099055E+01 -1.898543147640E+01 -9.158227842466E+00 5.155533553816E+01 -1.889601079452E+01 3.367198126368E+01 -2.623278843719E+01 7.280801524452E+00 -4.753366113563E+01 -1.650030911298E+02 5.790221236639E+01 -1.881093480047E+01 -3.540977515568E+02 4.184650978167E+02 1.912776281539E+03
 -9.814761329287E+02 3.829505656665E+02 -5.481054350004E+02 -2.161551094370E+01 6.181797254745E+01 3.260449686461E+02 -9.071458068810E+02 3.072269222177E+02 4.058455986352E+02 -3.792705196412E+01 1.420289258685E+02 -3.870861498687E+02 -1.233768086694E+01 3.768242512078E+01 1.338235219453E+01 -3.342360625163E+01 -2.718502254480E+01 -4.286509274886E+01 -4.508201978512E+00 -2.048843541589E+01 1.121331128010E+02 6.296825671442E+01 -2.018154865732E+01 -6.191200280365E+01 -1.803115367018E+00 7.824528368229E+00 -2.430648349040E+00 -6.638574801223E+00 -1.112953561012E+01 -8.655839771829E+01 -9.052020186091E+01 -1.075442857185E+01 9.298868258368E+01 5.013059334057E+02 -2.750065848447E+02 3.219588997092E+02 -7.370711975088E+02 3.600807569846E+02 1.740493753241E+02 3.551919770278E+03
 4.044859694627E+02 -3.575997456979E+02 5.675424522762E+02 -4.366717509678E+01 8.309893111427E+01 1.595611462785E+02 4.210541973965E+02 -3.264715156541E+02 -5.572285040792E+02 2.217485042804E+01 4.512467313162E+01 -1.727980259579E+02 4.413329691618E+01 -4.826830381876E+01 2.791553268678E+00 -6.795362935419E+00 -1.169115970661E+01 -2.015741631160E+01 -2.020079427203E+00 3.764060340756E+00 -2.504340966602E+01 5.695204324531E+00 -2.244446732905E-01 -1.549661624832E+01 3.582247778351E+01 -5.076127609345E+01 -3.052540024984E+01 2.258246479412E+01 1.064592429723E+01 1.150480246593E+01 4.650793995273E+00 6.738477622001E+00 3.139375801496E+01 2.265403259108E+02 1.055302085449E+02 1.302855974887E+02 -1.952913183634E+02 1.912014759168E+01 5.991408459245E+01 6.216528039080E+02 2.295956270950E+03
 -8.755548754942E+02 4.483836219829E+02 -8.762766166802E+02 3.796247101823E+00 -8.691175722649E+00 -7.372830329354E+01 8.699476837375E+02 -4.979790654041E+02 -7.687328908000E+02 9.249643966687E+00 -1.040504792826E+01 6.460749329673E+01 -1.890981966384E+01 8.963762079377E+00 -9.847076498408E-01 -8.659377537894E+00 -1.470305131532E+00 2.543394908808E+01 -1.719136750180E+01 1.882460366281E+01 -6.117098062375E+01 -3.453904560900E+01 -2.240950730827E+01 -1.972922491382E+01 8.550601103522E+00 4.978887433072E+01 1.195899073645E+01 5.181446935078E+01 2.304780673853E+01 2.351757295332E+01 -3.689686748940E+01 -2.300806575320E+01 -3.835591339996E+01 -2.919074873077E+02 1.744042337356E+02 -9.170416129617E+01 1.384364628562E+02 -5.039862589113E+01 -2.676171580652E+01 -3.625319681238E+02 -3.849868284606E+02 1.851205597160E+03
 -2.596885844118E+01 4.553999741802E+01 -3.649131808791E+02 -1.008762997700E+03 4.900105487225E+02 6.695579441181E+02 -1.414964981520E+01 1.196514473819E+02 4.200634059530E+02 -8.840914672077E+02 4.537346755718E+02 -5.517103315666E+02 -1.384429567473E+02 2.522870638059E+01 -2.129353461903E+01 6.230484430658E+01 -4.545755352508E+00 -2.738679334368E+00 -1.098006231204E+02 2.384032598280E+01 -2.952541833015E+01 -1.125645370552E+02 -2.022468802049E+01 -8.239422815539E+00 5.361929683561E+01 -3.805039713696E+01 -5.016531074044E+01 2.128172695860E+01 -1.532786273947E+01 1.353597219921E+02 3.897285007127E+01 -1.458472660199E+01 -1.381967845510E+02 -6.748561284168E+02 2.134425487939E+02 -1.503830119427E+02 3.053916793976E+02 -2.944779880234E+02 -2.392246803545E+02 6.623996465290E+02 1.944310733315E+02 -1.254416785255E+02 3.151209494933E+03
 1.568776591025E+01 7.304591421806E+01 -2.364472397432E+02 4.381053212494E+02 -3.437512314945E+02 -5.401201181978E+02 -4.856695920392E+01 2.578129448176E+01 2.224267446411E+02 3.852844633794E+02 -3.040337259531E+02 5.938292392465E+02 3.793493933835E+01 -2.918273363729E+01 -1.613132745919E+01 2.736458700590E+01 -9.497509027705E+00 1.249706913196E+01 -1.671779074917E+01 -1.085603813155E+01 1.708504860644E+02 -1.064043098194E+01 -1.745431576923E+00 -2.514141699843E+01 4.565721484911E+01 -1.541082782574E+01 -2.464750195398E+01 -7.802884885773E+00 1.056128399477E+01 5.094839213924E+01 9.987001094997E+00 1.983290027845E+01 -8.931953927382E+01 -2.556555539518E+02 -4.087792498755E+01 -1.513677360753E+01 3.507070955318E+02 -2.112004543847E+01 -2.200771964327E+02 2.889136479317E+02 -2.224820013745E+01 -4.044103427612E+01 3.171101333056E+02 2.334465049754E+03
 5.387731100422E+00 1.312163619673E+00 -1.240288222542E+02 8.643578908963E+02 -4.313499090312E+02 -8.699054983475E+02 -2.229149373286E+01 -1.298662742688E+01 1.121755009043E+02 -9.036857427319E+02 5.010107544575E+02 -7.730679524291E+02 -1.467278272360E+01 -8.281264675445E+00 -2.398690316811E+01 3.362837278853E+01 -3.081707577966E+00 -9.931445742764E+00 -8.431944075511E+01 2.559233632507E+01 2.637537248976E+01 -3.434360983656E+01 -5.457774282444E+00 -2.094374542077E+01 6.775945301590E+01 9.480655811010E+00 -3.219867764638E+01 -7.954722772148E+00 -3.299462010932E+01 5.644213719097E+01 3.866233317181E+01 2.143905535177E+01 -9.150899889601E+01 -1.627224348036E+02 -4.636066227194E+00 -2.384888178125E+01 2.882035847363E+02 -1.554799177364E+02 -9.681320800597E+01 1.557083136278E+02 -1.083872435997E+01 -2.074134727635E+01 3.611281594239E+02 4.966539817388E+02 1.890886791456E+03
 -6.966877846559E+00 3.694745189127E+00 -7.312746534085E+01 4.308823362539E+00 5.054411520053E+01 -3.793880690888E+01 3.812314399683E+00 1.495193125230E+01 1.035422090459E+02 -1.050661116387E+01 8.496501509778E+01 5.850904405697E+01 -2.952858376659E+01 -2.438083561164E+01 1.934010326279E+01 6.838748193732E+00 -2.921294400777E+00 6.991585684998E+00 -2.495514912387E+01 -3.540393358759E+01 -1.230225362306E+02 -4.157400483989E+01 -1.066913669677E+01 -1.960456893912E+01 3.212251556181E+01 7.486347636477E+00 -1.643473015012E+01 1.883742116930E+01 3.650637613600E+00 4.523245802736E+01 1.280859825655E+00 -6.984171084393E+00 -3.593727944563E+01 -1.458585345730E+02 4.842860673531E+01 -1.709572267735E+01 -1.530251353484E+03 1.514379214198E+03 6.180491499060E+02 1.352361229442E+02 3.656589373627E+01 -2.248236854551E+01 -1.418277404355E+03 -1.617784952465E+03 -6.333636298665E+02 2.971840337598E+03
 1.865548692405E+01 -1.105498859080E+02 6.261232875478E+02 2.083504541367E+01 -1.788834859455E+02 1.590939229486E+02 7.957129427160E+01 -1.591064902374E+02 -6.942870459612E+02 4.082895793350E+01 -5.125965872372E+02 -2.947962255194E+02 9.136463652190E+01 -5.510099970158E+01 -3.490848954475E+01 -1.087306051250E+02 1.477999860254E+01 -8.791826813884E+00 8.868913433510E+01 -3.756517838335E+01 -9.476689676344E+01 1.562820414783E+02 -1.026189770752E+01 -1.060079533797E+01 -9.264126459702E+01 2.340768132082E+01 8.894606971318E+01 1.712591928853E+00 -3.373321903661E-01 -1.883433209715E+02 -8.658190583997E+01 -9.221239674922E+00 2.441354763378E+02 9.960753191619E+02 -1.944431751157E+02 1.900711647689E+02 4.860087465684E+02 -1.130688502912E+03 -1.533029570247E+02 -9.836212126179E+02 -1.430484567560E+02 1.734177928824E+02 -6.498734169413E+02 -1.475536998589E+03 -2.381178585837E+02 1.169030108875E+02 2.968250572331E+03
 5.137566396431E+00 -3.759892835583E+01 1.892491975618E+02 3.224524064807E+01 -2.547887301637E+02 -1.344848885772E+02 2.186309273987E+01 -5.411830251888E+01 -2.180783721722E+02 -1.698793852326E+01 3.058082478806E+02 -2.913396424416E+02 2.821835099331E+01 -1.969438156413E+00 -1.311577640248E+01 -2.877479229550E+01 5.799891778506E+00 -3.965344257839E+00 2.030782379485E+01 -1.386131755287E+00 9.822420311616E-01 4.690468119706E+01 -6.500205243792E+00 -3.330708776054E+00 -2.634690193839E+01 6.782366320736E+00 2.499275147907E+01 8.138156173463E-01 -4.298726857884E+00 -5.921602226622E+01 -2.537823075320E+01 -6.602535309095E+00 7.159238502698E+01 3.213509877804E+02 -7.215408549838E+01 6.056821730655E+01 1.728320907572E+02 -3.648091275957E+02 -4.796011474692E+01 -3.144906133092E+02 -5.532089811248E+01 5.498244089879E+01 -2.214518021338E+02 -4.642964185427E+02 -9.242325861164E+01 4.170593027224E+01 6.717631973426E+02 5.989460740306E+02
 -3.471796858607E+00 1.536278033467E+01 -3.877729904088E+01 1.266472903274E+00 -3.418575165775E+01 7.533814726678E+01 4.076360104926E+00 1.048304205824E+02 -6.286502315490E+01 -1.224601606710E+01 -4.317334356826E+01 -6.333500259945E+01 8.610501600140E+00 2.982165819755E+01 -7.392024713556E-01 -4.691440189280E+01 -3.077351122648E-01 1.454584276969E+01 3.565857304626E+01 2.495760319596E+01 -9.859680302102E+01 4.369197047393E+01 1.003791759131E+00 4.356984615685E+01 -6.036731241153E+01 8.806841032647E+00 1.019919001233E+02 -3.079397700495E+01 -2.167479077477E+00 -6.577899199966E+01 4.569533323383E+00 2.280456681995E+00 8.125792904823E+01 -2.064537099757E+03 1.763133612769E+03 -7.165090775739E+02 -8.768907334597E+01 1.201450249651E+00 5.320702977167E+00 -2.097994883509E+03 -1.835632621805E+03 6.626177832852E+02 6.571253117807E+01 -1.587257333319E+00 2.100384918545E+01 1.264214506324E+01 -1.158601155327E+02 -3.711469827133E+01 4.285348370919E+03
 2.466415580127E+01 -1.671184823175E+02 -9.892043609065E+01 5.926265898490E+01 -1.235594861205E+02 -4.573609718320E+02 -1.146034526132E+01 -4.678968196811E+02 2.254137963550E+02 1.601752822260E+01 -1.691724831621E+02 5.162605439377E+02 -1.918037190537E+01 -2.859749036571E+01 4.188306115793E+01 6.407143574228E+01 8.293006869545E+00 1.790009760500E+01 4.611760947139E+01 -3.572157921968E+01 7.654916027862E+01 -8.983284792701E+01 1.042964714921E+01 6.051953942836E+01 -1.119154237357E+01 -6.345665586951E+00 4.855325278509E+00 -2.361471859127E+01 -3.298286664641E+00 6.806745855878E+01 8.603443910380E+01 -4.837908291868E+00 -1.456639130288E+02 7.582142346015E+02 -1.257105534251E+03 1.628082107626E+02 8.691715345748E+02 -3.219973586727E+02 -2.148431184676E+02 -9.266072457334E+02 -1.601712216397E+03 1.740461050454E+02 -7.783052776780E+02 -1.939852302261E+02 -1.416864899612E+02 -1.778875339379E+02 1.000111430173E+03 3.278088434514E+02 1.606682822234E+02 3.389802655466E+03
 -3.018810102883E+01 3.519511304870E+02 -2.456576186495E+02 -1.313771030836E+01 2.695376354581E+01 1.506596818749E+02 1.932941352082E+01 -3.960917542003E+02 -3.674551236582E+02 -1.046741563746E+01 3.028825976044E+01 -1.717594645740E+02 1.908495802641E+01 4.529825087531E+00 -6.855582829715E+00 -1.258690205309E+01 -3.154800599979E+00 -8.334436221292E+00 2.344344948078E+01 9.245343421005E+00 1.039359543073E+01 3.918836088509E+01 4.698539495016E-01 -5.095088414654E+00 -3.141707777701E+01 -2.597212101033E+00 -1.379399860512E+01 -2.706313842204E+00 6.024836002916E+00 -4.811058324716E+01 -1.820106044167E+01 3.394580618246E+00 6.049846485791E+01 -2.934462859125E+02 4.182575527494E+02 -7.870785387786E+01 -2.860677601580E+02 1.092658067394E+02 5.988536476019E+01 2.472848324742E+02 4.296977423932E+02 -3.324138566538E+01 2.581348673051E+02 7.720736128924E+01 4.373945745420E+01 5.137340270235E+01 -3.527894729635E+02 -1.140247521850E+02 4.781555263937E+01 -7.076745480871E+02 7.893060283036E+02
 -6.371899776676E+00 -2.509125212894E+01 -1.197006656533E+01 -1.128360622134E+01 2.881208063237E+01 -8.730953929855E+00 2.013725383365E+01 -1.086250074427E+00 4.685425536874E+01 2.859695616645E+01 8.855188612915E+00 4.056813841435E+01 -3.120958388492E+01 -1.092777060338E+01 1.645496312091E+01 2.270214839112E+01 7.738365635856E+00 -1.912760254454E+00 -5.130043324182E+02 -4.902983785549E+00 -4.693733094086E+02 -3.068340605486E+02 -6.108279872244E+00 3.167895268369E+02 1.639135451170E+01 -7.977449944033E-01 -2.101265660783E+01 -3.665133838085E+00 3.052239867454E+00 3.588899546809E+01 7.182653269470E+00 2.471672284281E+00 -2.917372288477E+01 -3.878261705048E+01 2.882850761224E+01 -2.655840724674E+01 3.401005876515E+01 -2.759485448406E+01 -7.617074233266E-01 2.158077472839E+01 2.726516392334E+00 -6.713844507701E+00 -2.719058498864E+01 -2.806025622364E+01 -2.631268544784E+01 -9.807750127511E+00 6.748489300303E+01 1.628128786044E+01 1.186771818861E+01 -4.654860036451E+01 1.240841142711E+01 7.843564341022E+02
 -6.282198523539E+00 4.201609360939E+00 -4.726814815367E+00 9.083013741182E+00 -5.889485395738E+00 -1.104097338066E+01 -1.540637226817E+01 -9.949894195906E-02 1.369016469929E+00 3.661643769255E+00 3.039504864788E-01 5.306074866442E+00 -2.568104711769E-01 -1.986888630265E-01 -5.841966301735E+00 -1.035964362650E+00 -5.329198854036E-01 -4.706304731619E-01 -2.005088110467E+00 -1.521789412652E+00 2.279376865723E+00 -1.926618684871E+00 6.476994319261E-01 3.344779809382E+00 1.893955403192E+00 2.421861544140E-01 1.122249624685E+00 -3.553543141132E+00 -5.101845077589E-01 1.551088475366E+00 -7.661313237068E-01 -1.223071624555E-01 -2.271604529542E+00 2.612347351320E+01 -2.018033572919E+01 7.394751770266E+00 1.944098913080E+00 1.124433039686E+00 1.181512456665E+00 9.115917472619E+00 -9.048795281328E+00 -1.545885356928E+00 -2.298389624692E+01 -2.659997428101E+00 4.616086458538E+00 -8.373852307801E-01 -9.161269964659E-01 2.502718913003E-01 -7.467658969225E+00 1.021333185238E+01 -3.022632580740E+00 3.851181806220E+00 2.391061495867E+01
 1.066728496499E+01 -9.706641688540E+00 -4.288053094818E-01 -3.656317547407E+00 1.479051275095E+01 2.017218410415E+00 -3.727821409843E+01 -4.937013435623E+00 -1.920339157550E+01 -2.765473381994E+01 1.678931608400E+01 -2.211438194787E+01 -6.065687813728E+00 -1.057023374536E+01 2.764104244499E+00 -8.082552944234E+00 3.437934977315E-01 9.445424013424E+00 -4.247052673376E+02 -5.589344557423E-01 -3.634472498655E+02 3.169845894570E+02 -1.989613449261E+00 -3.692500325836E+02 1.234943220837E+01 5.158163446952E+00 3.509332321490E+00 6.550504600748E-01 6.775913157884E-01 9.190702396379E+00 1.675791576912E+00 -2.161126088629E+00 -6.075663527906E+00 3.843892895824E+01 1.860994948936E+00 3.465286341300E+01 -2.280001176307E+01 1.078170736137E+01 1.681290961271E-01 -1.688482702747E+00 1.375494414792E+00 -1.527429886401E+01 4.836935251230E+01 -3.160428013401E+00 2.579233636554E+01 6.173543630242E+00 -1.627579955677E+01 -6.625248215171E+00 -1.470386165651E+01 1.814732282739E-01 -6.216072646145E+00 9.683081054021E+01 4.512484278674E-01 7.073423517149E+02