#BIOSYM hessian 1
@Type: Hessian Update
@Units
 distance: 	A
 energy: 	Kcal/Mol
#header
@natom 19

#label
L1      L2      L3      L4      L5      L6      L7      L8      L9      L10     L11     L12     L13     L14     L15     L16     L17     L18     L19

#element
Li Li Li Li Li Li Li Li Li Li Li Li Li Li Li Li Li Li Li

#matrix
57
 2.482264893791E+01
 -6.022379236113E+00 2.235600412919E+01
 -8.173795072860E+00 7.965980885251E+00 2.474844520696E+01
 -1.777870937933E+00 4.843671816580E-01 -8.479760997105E-01 2.238435696917E+01
 1.748117247175E+00 -7.673884669843E+00 -1.325111445581E+00 2.424132645886E-01 2.831817894971E+01
 7.039961037737E-01 -1.478368947016E+00 -3.867599396953E-01 -3.338202835308E+00 -2.171140934842E-01 2.758255362392E+01
 -2.714820540071E-01 3.863234648586E-01 -3.280175852870E-01 3.812695945051E-01 -1.112518101550E-01 7.215800126441E-01 1.338464629782E+01
 -2.739140779849E-01 -2.606905930976E-01 -5.872807489713E-01 -1.099001821630E+00 4.204223908610E-01 5.598888360679E-01 4.388764941526E+00 3.190379875412E+01
 -2.756709311382E+00 -4.799091812299E-01 2.372396748956E-03 5.750191230816E-01 -2.453852812039E+00 -4.797974969172E-01 4.970342798048E+00 6.037794537299E+00 2.606846161950E+01
 9.066224752574E-01 -6.720312281254E-01 -7.770380372726E-01 1.691440964365E+00 -8.367131612630E-01 -1.494484343494E+00 -9.167462267171E-01 -4.676395604023E-01 -4.885560584299E-01 3.503106006166E+01
 -1.567064614138E+00 9.561570421607E-01 -3.100780860729E-01 -3.041568129397E-01 -4.616454971612E-01 -1.317194382824E+00 -4.523984482531E-01 4.020933494561E-02 7.182474164938E-02 2.162435582955E+00 1.503791646278E+01
 1.474370327721E+00 1.122583109096E-01 -9.100055035250E-02 -2.620527096310E-03 2.891084382285E-02 5.279013795187E-01 -6.989871021910E-02 2.202278619427E-02 -1.327343128438E+00 1.029348208310E+01 -3.709153977209E+00 2.728064413060E+01
 -2.120906966373E-02 -2.622009485468E-01 2.583508142955E+00 -1.290680144078E-01 -6.070518134561E-01 1.306697668704E+00 1.451158606681E+00 1.687690155750E-01 1.917997004812E+00 -8.554090868891E+00 -1.092197579390E+00 5.592890457928E+00 3.109017953993E+01
 -6.379365351281E-01 2.764017356533E-01 1.386731170463E+00 1.207289432774E+00 -1.576090318585E+00 -1.892622110255E+00 6.217012678450E-01 -1.525451321308E+01 3.305660177469E+00 -2.099950002068E+00 -1.671999169125E+00 5.843649563613E-01 5.388738182172E+00 2.979208724315E+01
 -1.214207823606E+00 2.189892590015E-01 -3.781858427742E-01 -4.300547402403E-02 -7.463294546250E-01 -2.011565513799E+00 -2.318010224894E+00 1.998225347735E+00 -5.323926656493E-01 3.337886555153E+00 8.776723278088E-01 -3.841899487361E+00 -4.616883935297E+00 -5.381560080236E+00 3.806151283270E+01
 -6.590503882843E+00 1.901415134508E+00 -3.478799159538E+00 -4.469164454861E+00 -2.203506083683E+00 -8.478212157728E-01 -1.668015736454E+00 -7.415695160185E-01 1.303536566686E+00 -7.101541046131E-01 1.358057446061E+00 -2.141827939792E+00 -5.819052704532E-01 -2.087909373502E-02 -9.382425262829E-03 2.784339749889E+01
 1.646394608209E+00 -3.367466852143E+00 2.040820358137E+00 -2.289828589460E+00 -3.376217070974E+00 -7.289734497488E-01 4.557354304050E-02 -8.071043696478E-01 -6.679633642441E-01 -1.211918491270E+00 -2.161931327182E-01 8.179004647718E-01 1.184020309333E+00 4.482221905593E-01 4.006696440086E-01 -1.877249698721E+00 2.289761417158E+01
 9.563227696982E-01 -7.208838229899E-01 -3.271650495388E+00 -1.711429701747E+00 -1.944627899374E-02 -6.262804478326E-01 -8.135664860519E-01 1.456367804969E+00 -2.074630541661E-01 -1.245734941332E+00 -2.853797514495E-01 2.583098669643E-01 -1.545437897104E-01 -4.210641806420E-01 -1.425989567591E+00 1.895541436253E+01 1.175556438770E+00 3.214495434042E+01
 -6.761836789804E+00 7.956458407384E+00 1.231161787057E+01 3.366671904291E-01 -4.506486543995E+00 4.717968849580E+00 -1.752879441738E+00 -1.756215856573E+00 6.357077504682E-01 4.997896989814E+00 5.913336544037E-01 1.696368234985E+00 2.052657650063E+00 9.965119682229E-01 2.001337761869E+00 -1.517219699724E+01 1.497901978759E+00 -1.956084481439E+01 5.704295645219E+01
 7.986674373671E+00 -6.871298187670E+00 -9.241312063562E+00 -4.300521845239E+00 -4.347344554219E+00 9.264186970510E+00 6.572506243431E-01 2.695644041092E-01 -1.271188283492E+00 4.260714363944E-01 7.666054651015E-01 -2.282379848886E+00 -1.374723712100E+00 -1.805110980679E+00 -3.822848544090E+00 4.583806153845E-01 -4.959729674077E+00 2.256564503840E+00 -8.951869776459E+00 6.968072351903E+01
 8.703426480724E+00 -7.569498785213E+00 -1.008966374348E+01 5.059888560137E+00 8.754004655582E+00 -7.642633964386E+00 -3.610886199959E-01 1.492288686476E+00 -1.321060661147E+00 -7.084027066859E-02 -5.144225365817E-01 -1.530096998700E+00 1.812712000310E-01 -7.396485776013E-01 1.863972924572E+00 -1.258389479097E+01 -3.286889106512E+00 -1.688200096059E+01 3.606948810150E+00 1.487747761892E+01 6.227887460995E+01
 -3.640480110550E-01 -2.745342615877E-01 -2.766545751022E+00 4.270035958300E-01 3.050407196814E-01 -1.750407873179E-01 8.692243567575E-01 -1.248729941781E-01 6.978790108401E-02 -6.408259736609E+00 -5.972531538073E+00 -2.348657776316E+00 -2.768306054414E+00 1.548753170580E+00 6.502967199321E-01 -2.961670366472E+00 -1.101909812305E+00 8.770066253744E-01 -7.468369987676E+00 3.016345170584E+00 -3.042989557657E+00 3.211934483739E+01
 6.450491736581E-01 -1.788658271911E+00 -2.981948293134E-01 7.845054715543E-02 1.183899786413E+00 -1.044269344911E+00 -5.403558430279E-01 -6.815634815204E-01 1.661481671419E+00 -2.706899502649E+00 -4.738410373586E+00 -7.118233332560E-01 5.027864566758E-02 -2.685624495453E+00 -1.234746174896E+00 -1.115309779635E+00 -6.411428654323E-01 1.598583821391E-02 3.898974468777E+00 -5.022913509034E+00 4.085721510447E+00 1.501861588606E+00 2.734272156994E+01
 -2.521580063852E+00 -5.139856196185E-01 -6.751376176819E+00 6.143968059278E-01 3.809313949204E-01 2.616606853880E+00 1.295878814392E+00 4.131345622710E-01 -1.126926875855E+00 -2.711110547615E+00 -9.671817996917E-01 -2.020381634209E+00 1.689917529566E-01 -4.505158222481E+00 -5.375177911103E+00 -1.008217074107E+00 6.829441649613E-01 -1.073637828604E+00 -2.488848610257E+00 2.198002752511E+00 -5.216442335956E+00 1.346705229749E+00 -1.305412077041E+00 2.572668703295E+01
 9.739774124501E-01 4.854389134525E-01 3.499333382703E-01 5.698549007390E-01 3.573923740928E+00 2.132556225492E-01 -1.422935948180E+00 -1.727701161215E+00 -3.725459387921E+00 -3.051540587089E-01 9.591035562563E-01 5.317795021892E-02 2.347278802321E+00 9.795495781875E-01 -1.473537730165E+00 -1.171892982071E-01 -9.718290975800E-01 5.218905078165E-01 -6.571002081341E-01 -2.766422055985E+00 1.872537352335E+00 -2.015611942945E+00 1.229158781513E+00 -6.429792204554E-01 3.523523258211E+01
 7.317041851292E-02 5.789761010698E-01 -7.289822135441E-01 8.449356359162E-02 -5.374275007937E+00 -5.583835424535E+00 -1.225663391677E+00 1.026710067281E+00 1.515405010313E+00 1.312940816880E+00 4.968688485735E-01 -6.762526770157E-01 8.709962781394E-01 -1.991058012980E-01 3.509417167469E-01 1.054851310323E+00 3.664055763023E-01 -1.789419553170E-01 1.129446722821E+00 -2.244507851029E-01 -4.598890774015E-01 -1.150518659299E+00 3.426666361501E-01 -7.842208273154E-01 2.456680673539E+00 3.004692914979E+01
 -8.154651697765E-01 1.178735109127E+00 6.347517321982E-01 4.652713965394E+00 -5.713733737719E+00 -6.151305990967E+00 -3.281543440094E+00 2.061752324858E+00 -1.029553928163E+01 2.630153263389E+00 6.139621005989E-01 -1.870284498174E-01 1.840891014593E-01 2.126602066310E+00 2.431630671242E+00 1.179634252260E+00 -2.298669565780E+00 5.031043671112E-01 -1.259524507050E+00 -7.103126672153E-01 1.955769954153E+00 6.095282596446E-01 -1.021263551204E+00 -2.631402586764E+00 1.808441659711E+00 -8.419990017168E-01 2.815737172215E+01
 -4.732825466922E-01 -7.348778112775E-01 1.290260762943E-01 -8.931175272179E-01 -2.272799421237E-01 -1.171435409668E+00 3.358401727826E-01 5.155440048189E-01 -3.541753285185E-01 -2.152169757218E+00 4.246900699366E-01 6.286150505515E-02 -4.691603818504E+00 1.821705256676E+00 2.579535344738E+00 -3.331342518350E-02 -7.698155006877E-01 -7.027053977770E-01 9.132318989604E-01 1.079499789219E+00 3.178009516725E-01 -1.666553718340E+00 -1.989042439800E-01 3.174466788313E-01 5.912592064862E-01 -3.092322023839E-01 -3.977743587116E-02 1.416657741051E+01
 -8.771562965590E-01 7.905672162072E-01 -7.252839795332E-01 6.190013214023E-01 -2.263892398714E+00 2.701630623930E-01 7.813358790902E-01 -1.838628199025E+00 1.394561191611E+00 6.356491292719E-01 -4.242102937875E-02 7.589022171045E-01 7.663508583073E-01 -8.069307834437E-01 1.869519986515E-01 6.881101815454E-01 -2.849565394196E-01 -1.020401521162E+00 2.155143736367E+00 -1.982310214828E+00 1.028946886283E-02 -5.286532291236E-01 6.207328825756E-01 -1.525418130644E+00 -2.055444927638E+00 2.143198508198E+00 5.723243415151E-01 -2.982070004856E+00 1.369186010789E+01
 1.289571998567E+00 1.416438920230E-01 4.380212428383E-02 -4.996999148655E-01 -1.123402815956E-01 5.315523663236E-01 -9.310639948581E-01 -3.370202596747E+00 -2.985172309559E+00 2.657651804015E+00 4.406172634493E-01 1.443089308532E+00 -2.834398248866E-02 2.285901141327E+00 -4.450360562275E+00 1.162136443728E+00 -3.358607371221E-01 1.473832160705E+00 -3.664322006922E-01 5.540931483779E-01 -4.954181125448E+00 -3.272423127950E+00 -2.326599863196E+00 -3.613936254106E-01 -4.482390545706E-01 -9.293267550189E-01 -6.195474824535E-01 -9.478671097611E+00 -1.464970563507E+00 4.332706426169E+01
 -2.674353449752E-02 -4.964513048845E-02 -2.870957572269E-01 2.010855957783E+00 -1.543902243279E+00 9.352379381424E-01 -2.648963067353E-01 7.000165365187E-02 5.177413677246E-01 1.531208290767E+00 -4.552184144198E-02 9.074926135700E-02 3.895183002812E-01 -2.682299669304E-01 -6.539250717165E-02 -8.670156438460E-01 8.457411900572E-02 5.347368497873E-01 -9.171252751081E+00 1.467676470837E+00 3.681054863545E+00 1.668355364302E+00 8.654188571688E-01 -6.151809225716E-01 4.855773298710E-02 3.001707978715E-01 -1.119870009661E+00 -1.110415590588E+00 -3.585281047250E-01 3.136828859228E-03 3.453553612883E+01
 1.358377987932E+00 5.707731938794E-02 3.077133917238E-01 1.560261424282E-01 8.248753433262E-01 1.136680082911E-01 -1.993450278904E+00 -4.942462747054E-01 1.756323036334E+00 1.503473488762E+00 -2.324352901923E-01 -2.618343178107E-01 -5.016376028884E-01 2.361795829403E-01 9.031715340982E-01 -9.749776193662E-01 -2.467671029834E+00 -3.224786220186E-01 -1.641144932806E+00 -1.206015675471E+00 5.601106294445E-01 1.833383463020E+00 2.493152517591E-01 -2.007316429005E+00 -5.651953209118E-01 -5.735500095099E-01 6.915875770952E-01 -5.026069451313E-01 -1.147641877837E+00 -2.653059951652E+00 6.275233226119E+00 1.916271811842E+01
 3.854129472041E-01 5.325419195058E-01 8.726217996007E-02 2.199396385186E+00 -8.987072359648E-01 -8.470106628949E-01 -1.561741766092E+00 -1.716982253576E-01 1.154210316777E+00 1.829625457241E-01 3.957986927854E-01 -1.261191987892E+00 -2.222444655767E+00 -7.995440639867E-01 3.061795288147E+00 6.772075040984E-02 1.736791437101E+00 -2.136249931760E+00 4.599835485775E+00 -3.480745407037E+00 -3.204869884642E+00 1.400980306829E-01 9.895722036187E-01 2.020084998547E+00 -5.399598049469E-01 8.798766945639E-02 7.687624793747E-01 -1.145220171729E+00 8.447784134655E-01 -3.464979055768E+00 8.314490096955E-01 -3.955568482812E+00 2.031600571313E+01
 -1.684868988403E+00 1.345329035315E-01 1.028517851113E+00 -9.754953431990E-01 6.058754495443E-01 -1.173013090864E+00 -8.245632290051E+00 -9.505921869480E+00 -7.214416709211E+00 8.334620648745E-01 1.358238073798E+00 2.631058624314E-01 -6.827162599075E+00 3.205262317025E+00 -3.128190807485E+00 1.631787136418E+00 1.553676396364E+00 1.530025582970E+00 -1.674135961478E-01 2.872985065211E+00 4.535515657509E-01 3.781206132020E-01 -6.112030394327E-01 -6.198297404333E-01 -2.720988624260E+00 -2.580176188806E+00 4.359053573281E+00 -4.807295653316E+00 -1.973623237840E+00 1.673387318464E+01 -1.442287076682E+01 -8.402050246541E+00 -4.005032134631E+00 6.599997640741E+01
 -5.011782423921E-01 -2.210262035074E+00 -1.462504468530E+00 -3.360809186924E+00 7.993926935909E-01 7.903142113080E-01 -5.622465067963E+00 -6.843197183649E+00 -5.880486943447E+00 2.737552110557E-01 -9.591619729385E-01 -4.066445455951E-01 1.387796234604E+00 -1.459124469246E+00 1.074562161767E+00 3.952759673863E+00 3.742063543553E-01 3.410345312885E+00 -3.773902895075E-02 -7.078290740810E+00 -1.325183863935E+01 6.996229886846E-02 4.193494474739E+00 1.466748420240E+00 -4.592998173352E+00 -9.469565228008E+00 2.242568548476E+00 -1.728441257836E+00 -1.841743694054E+00 5.342094182597E+00 -7.094035965522E+00 -1.486978723466E+00 -1.517516374741E+00 -4.164028368262E+00 6.386745442990E+01
 -8.250112329717E-01 1.836573978785E-01 1.494849085156E+00 -4.491782795094E-01 -6.415256285828E-01 8.100037336293E-01 -3.547317823253E+00 -3.570183659617E+00 2.260383654940E-02 -9.862136961625E-01 -9.492851069324E-01 7.218403320259E-01 -1.363889217342E+00 5.591608885805E-01 -3.026715964446E+00 -1.302462831108E-01 3.940752019175E-01 -4.687052055543E-01 4.693981513876E+00 -1.570158109331E+01 -9.024739224011E+00 1.570697635245E+00 1.544633666157E+00 7.465420390254E-01 4.225062035854E+00 7.247909344860E+00 -3.444226968552E+00 9.148471041816E+00 1.784336790189E+00 -3.001939808215E+01 -2.278462619063E+00 -7.248269964559E-01 7.061570289884E-01 -1.420793935383E+01 3.886976167049E+00 6.778770485724E+01
 -4.458373433477E+00 -1.151513054126E+00 3.845945749122E+00 -8.550111051366E-01 -6.211794850436E-01 -5.420862769580E-01 -1.553218663810E+00 2.448996226918E+00 2.997326084167E+00 -5.979990816379E-01 -3.644655318300E-01 4.730483551940E-01 -1.316309886777E+00 -7.915014745625E-01 9.867733752117E-02 6.743236551310E-01 2.211150106482E+00 1.003456398071E-01 -7.386328683199E+00 -3.098901499596E+00 -1.145151461853E-01 -6.437434491827E+00 -3.905532680813E+00 -1.554015459967E+00 -1.547863416418E+00 6.140050386025E-02 6.157891377731E-01 1.809181847924E+00 -3.716188981053E-01 1.066191838923E-01 -9.797237557092E-01 2.090859911339E+00 6.217119500306E-01 2.380445982328E-01 -2.907235174412E-01 2.365956802676E-01 2.231169107644E+01
 9.950829714976E-01 -1.202700159855E+00 -3.311557982945E-02 -1.823506507215E+00 1.395807367232E+00 2.214405024331E-02 2.521727435483E-01 1.763000847056E+00 1.753646640566E+00 2.109862852444E-01 2.765171938530E-01 1.058548864009E+00 -1.758907243203E+00 -5.864648136642E-02 1.101631075012E+00 9.312241510770E-01 -4.969953770385E+00 3.398409791751E+00 -7.017125551225E+00 -2.113081239318E+01 -9.907066535056E-01 -7.278502020879E-01 -1.352150602406E+00 -5.306776698566E-01 1.462434555990E+00 7.211651930108E-01 1.619773702524E-01 1.867021915782E+00 1.431976411982E+00 -1.908744790650E+00 1.563889409806E+00 -2.446906816143E+00 -1.792555819993E+00 -2.355079685731E+00 -2.259198402550E+00 3.698773095717E+00 7.235758404290E+00 3.366498637303E+01
 2.947756240465E+00 2.360116825620E+00 -3.580185743395E+00 6.004700377244E-02 1.981105873144E+00 9.966811388940E-01 -1.145422223378E+00 4.158807929657E-03 -9.850590420435E-01 2.630921230975E-01 2.976216201102E-01 -3.096209420828E-01 -1.325593668905E+00 -6.727877126180E-01 -6.544963148494E-01 -7.995947381583E-02 3.648223164301E+00 -3.834579598359E+00 -1.769464204671E+00 5.461167446814E-01 1.983354475919E+00 -2.954159905614E+00 -2.464991593745E+00 -1.276570144578E+00 5.514565763356E-01 6.994148566620E-01 -1.424337903441E+00 8.875613494505E-01 -7.089263754232E-01 -6.840842580825E-02 -1.184064116815E+00 -9.885142015312E-01 -2.198557592568E+00 5.879767006153E-01 -1.943788985142E+00 -3.895247836260E-01 1.352160761396E+00 7.905916888251E-01 1.973793431674E+01
 3.764936103667E-01 -4.119941174044E-01 8.073511235745E-03 -8.432227058384E-01 1.642316865441E+00 1.491522072309E+00 1.446983962452E-01 -3.290114950013E-01 -3.266593857673E-01 5.023142890187E-01 4.474803062967E-01 1.987580888711E+00 -9.328461655819E+00 -9.213541409636E+00 -1.433763472721E+00 3.097320813991E-01 2.071254913846E-01 -1.170406205606E+00 -1.043443411056E+00 -1.225974846446E+00 4.159133043895E-01 -7.056199633864E+00 -2.096264688626E-01 3.534798237558E+00 -5.196732636256E-01 -1.151796303077E+00 -2.090771873220E+00 -5.755968764714E-01 2.666110353666E+00 -1.277160126735E+00 -6.813435549600E+00 3.607220602302E+00 -4.463134418355E+00 -8.610070918352E-01 -1.016858336253E+00 1.736206365919E+00 -1.970053164296E+00 -4.143884176082E-01 -7.545647605626E-01 2.833928320145E+01
 3.270611755324E-01 1.896824411624E+00 -9.494859494151E-01 2.586211678731E+00 -2.521264931857E+00 5.754367440385E-01 2.049793244079E+00 4.431917210047E-01 -6.883208838393E-02 -3.845758290688E-01 -4.611576591769E-01 7.398587361822E-01 -6.052421962432E+00 -6.004247940569E+00 -6.992980793309E-01 -6.798424777428E-01 1.509040317521E+00 -7.477269216547E-01 1.977728233117E+00 -6.041089801424E-02 3.294370333630E+00 1.265856713223E+00 -1.505334804586E+00 -2.964093191541E-01 -5.427729663827E-01 -1.872042145521E+00 2.200953629305E-01 5.065786955476E-01 -3.461188285776E+00 -9.652990086857E-01 2.424354924131E+00 -4.198650893139E+00 1.642161816025E+00 3.224851332576E-01 -1.215744359153E+01 6.975416223307E-01 -8.735939918101E-01 -3.370282229191E+00 -4.067617669583E+00 2.537495196475E+00 3.184805934350E+01
 3.078452243378E-02 -8.267259440311E-01 -4.749567389839E-01 -4.119268255188E-01 6.144703673651E-01 4.282359664692E-02 3.815489059517E-01 -6.731846979327E-01 -6.909069908040E-01 2.012841952608E+00 -9.474689218240E-01 1.995204276206E+00 -6.161040292798E-01 -1.000774471641E+00 -5.535350617008E+00 -5.194233876623E-01 4.911287486199E-03 7.340479939476E-01 -4.949722750033E-01 3.035256940289E+00 -9.310789237304E+00 5.783730682503E+00 -1.464241735648E+00 -2.519647522867E+00 2.032482238718E+00 -3.645690173214E-01 -8.251752711105E-01 -2.785842428579E+00 -3.939451956953E+00 -1.310257108395E+00 -2.163093633005E+00 4.261040199354E+00 -5.409942022565E+00 1.897559997988E+00 4.267930009148E+00 -2.104143190937E+00 -2.661517391445E+00 -2.616869350257E+00 -9.120701933597E+00 3.184858069762E+00 -6.518132886395E-01 3.296889928136E+01
 -2.248485584894E+00 1.469454723206E+00 -1.540693352744E+00 -3.221662475115E+00 2.759293421970E-02 -3.791158057116E+00 2.505680510674E+00 1.957916108524E+00 1.032042938295E+00 -1.977904359523E+01 1.408777415715E+00 -1.208498013189E+01 -2.279435991877E+00 8.606331045047E-02 2.313635304475E+00 3.433842529509E+00 2.722647166917E-01 -5.848369247570E-01 -1.678601864611E+01 -4.207172308791E+00 -3.687499379620E+00 1.464118190662E+00 -7.399462055146E-01 8.592404243529E-01 -1.970060417870E+00 5.148257607233E+00 -1.452410994761E+00 2.204182530094E+00 1.381942457785E+00 -4.926561583801E+00 -3.000302437885E-01 5.513246035738E-01 2.961588269084E+00 -1.922060393141E+01 3.063368686497E+00 9.569738776955E+00 2.116541836726E+00 6.379827516821E-01 -5.956648068553E-01 -1.282150563846E+00 1.962224395158E-02 -1.909752615836E+00 7.909541090609E+01
 -6.620895208893E-01 7.624465535250E-01 2.966702148148E+00 2.599156942680E-01 -4.688741180491E-01 -3.160247550714E-01 1.137435095566E-02 -8.949872404236E+00 -8.591082622457E+00 3.179421678178E-01 -3.284561735769E+00 1.165895733357E+00 -1.120438083827E+00 -3.205635272535E-01 7.859725649231E+00 -6.335118676861E-01 4.216242229421E+00 -2.103634244957E+00 -3.085964343967E+00 -8.822879246617E+00 -6.119113272432E+00 2.769651663720E+00 -9.227740552925E+00 2.764134885433E+00 3.633323848551E+00 -1.200383441586E+01 2.645268931781E+00 -9.846420080860E-01 -8.190745348894E-02 -1.630941434988E+00 4.243316241437E-01 1.702215057086E+00 1.914405772530E+00 5.800853768347E+00 1.377583810969E+00 -3.020094520277E-01 -2.620442246639E+00 -1.617033629999E+00 -1.185598099711E+00 2.068492274498E+00 1.083613976878E+00 3.764957065851E-01 1.040569286726E+00 5.624310614840E+01
 -5.870320098667E-01 1.079513311115E+00 2.418355960359E+00 -1.892781013144E+00 -1.284582422926E+00 -9.369099018826E+00 4.093636963676E+00 -6.443550708017E+00 -6.049132660936E+00 -1.480596413408E+01 3.641713124680E+00 -9.775157294617E+00 4.010700739169E+00 5.040851751966E+00 -2.005131063593E+01 -3.064808293487E-01 4.022638252424E-01 2.124076467009E+00 -5.543422689034E+00 -2.497061392326E+00 -4.162989434547E+00 1.565187163324E+00 1.856552389729E+00 -8.210661618532E-01 -1.250483748994E+00 2.259657890369E+00 8.270951632535E-01 1.503939260733E+00 1.743876761497E-01 4.528079481276E+00 -2.362315990161E+00 -2.982059782745E+00 -3.872946189314E+00 8.609569519561E+00 2.194171978419E+00 -4.032352754737E+00 -2.038377775831E+00 -1.764124472550E+00 -3.182495009327E-01 -1.891128471737E+00 -2.634230992004E+00 2.890449154774E+00 -5.238633800093E+00 5.517931994486E-01 6.307684488525E+01
 -2.965973924933E+00 -2.487603551929E+00 -1.233809688184E+00 -5.967753715418E+00 3.320889234227E-01 -3.634651248412E-01 1.023347939952E+00 3.214704928034E-02 -2.685260850272E-01 -2.340793560531E+00 -2.473639036085E+00 -2.837899798669E+00 1.372933852816E-01 -1.872946612765E-01 -7.675438143847E-01 -5.382191366348E-01 -5.135393526908E-01 -1.317519807286E-01 1.591929850654E+00 1.382396803245E+00 -1.278755567176E+00 1.180449533187E-01 1.639846174131E+00 2.261681797056E+00 -4.286352502823E-01 -1.428203763828E-01 -2.357919830829E+00 -1.642496337040E+00 -9.131671711556E-01 -2.476079144920E-01 -2.071802141172E+00 2.768005414135E-01 -8.700615412565E-01 -6.451953704279E-01 2.431024293818E+00 4.258322106985E-01 -8.574793992500E-01 1.128287954795E+00 1.755346825576E+00 -1.149995101780E+00 -2.088014664281E+00 1.031101301399E-01 -7.495953053642E+00 6.526064548643E+00 1.076743565769E+01 2.343641048785E+01
 -3.213338201950E+00 -3.930090666834E+00 -8.619157188634E-01 4.037914019446E+00 -1.209029575472E+00 1.367963267494E+00 1.094481739234E+00 -7.251135401115E-01 1.148851450285E+00 6.210164085827E-01 -6.096836685757E-01 -1.083037636671E+00 8.605921003419E-01 1.347470555489E+00 -1.549339001619E+00 -1.091329788226E+00 2.489942646126E+00 -1.832125011731E+00 9.286479471815E-01 -2.853044731081E+00 2.472981173152E-01 -2.504934061842E+00 -2.583053475047E+00 4.705916422231E+00 1.666388331126E+00 1.099183315517E+00 -1.516489166134E+00 5.880847243229E-01 -1.929437651478E+00 9.840641888968E-01 1.570607795907E+00 -1.295577897591E-01 6.650955658054E-01 -1.763877377624E+00 -3.599764961618E+00 -9.578814749222E-01 -2.298371595062E+00 -7.152527335846E-01 -2.271625713590E-01 -7.020691875748E-01 -7.606941472448E-02 1.943679040164E+00 4.256445184528E+00 -2.505223169192E+00 -5.676301315806E+00 -3.572404047469E+00 2.305712013272E+01
 -5.502532795606E-01 -1.778932235864E+00 -9.116825515487E-01 -2.226266032580E+00 3.084171312982E+00 -2.384901651269E+00 1.574320445963E+00 -3.099776946163E-01 3.226846160925E-01 2.015045123971E+00 -1.160217004140E+00 -7.903694187705E+00 -1.412548674000E+00 9.125112556078E-01 2.205503066215E-02 -4.431261718818E-01 -1.769036973450E-01 -1.390345429204E+00 -1.491617497088E+00 7.726966261860E-01 3.838976163948E+00 1.348094071999E+00 8.178757910696E-01 -3.356399448876E+00 1.973359335763E+00 2.185711025335E+00 -5.226793650263E-01 1.353159341642E+00 -5.411828847250E-01 2.040050496005E-04 9.332537998693E-01 -8.099301403743E-02 -7.766797758473E-01 -6.531564238566E-01 -1.872463096027E+00 -1.616658255105E+00 -1.375836474800E+00 -8.303101305391E-01 2.719722951179E-01 4.272794715471E-01 3.501476292817E-01 -7.517085530056E-01 1.023815265681E+01 -7.781543409733E+00 -1.007721774733E+01 -7.724470311809E+00 7.095938029339E+00 2.435866529366E+01
 6.817065622123E-01 -7.084499029257E-01 -1.112524505952E+00 -6.734803757445E+00 6.594991555517E-01 3.049578711471E+00 8.989029820579E-01 3.272936113346E+00 -1.341419469653E+00 -3.479658385054E+00 -2.918092383832E-01 -1.532873632535E+00 -2.024394637716E+00 -1.039396244427E+00 1.233456858130E+00 -6.537538526567E-01 1.631742701045E+00 1.085163050572E-01 -2.422616625255E+00 7.813755727561E+00 -3.075841378802E+00 2.278096907766E-01 3.558278312585E-02 1.532155383050E+00 -1.229538568119E+01 -7.891110078635E+00 -6.755060797848E+00 -1.032659049328E-01 -7.295167740585E-01 1.130399789710E-01 -2.611549644845E+00 -4.425519157639E+00 3.864470049642E+00 1.809008804588E-01 3.185595072306E+00 -8.301331892541E+00 2.997834582637E-01 -1.810552699109E+00 8.383583613229E-01 7.871120185376E-01 -8.013646795073E-01 -9.148256016875E-01 1.622757073478E+00 2.495229508267E-01 2.183805674166E+00 2.682549112514E-01 -5.961843774350E-01 -1.746150972722E+00 2.683707110666E+01
 -2.352638666914E+00 1.261856874016E+00 1.396277962956E+00 1.960000140894E+00 -3.785833179724E+00 -1.112372476348E+00 -8.772780551239E-01 6.118148206028E-01 5.611473225428E-01 9.474227076967E-01 -1.213090275775E+00 1.322866116177E+00 1.720442828462E+00 6.655300854048E-01 -1.773442240965E+00 2.210984298249E+00 -8.153014960521E+00 -2.537394854141E+00 4.790602223001E+00 -6.882001727694E+00 4.167543191971E-01 1.396616983424E-01 -1.137692569670E+00 1.802695193644E+00 -5.762026692398E+00 -4.550603401559E+00 7.900767622937E-02 3.945528027892E-01 2.386025377730E-01 1.231626223270E+00 -3.905349576623E+00 -5.164472734144E+00 3.558996365015E+00 3.005167731987E+00 -1.591430294445E+00 4.270405007291E+00 8.116663325037E-01 1.128271120772E+00 2.720174930239E-01 2.296135605307E-01 -2.224607674506E+00 -9.558829635522E-01 -5.626896769996E+00 -2.822856325370E+00 1.643422467914E+00 1.179437225232E+00 -5.000711489222E-01 -1.222145649475E+00 -7.534316353751E-02 3.191438617972E+01
 -1.001252471014E-01 -7.374984253398E-02 -1.755896359260E+00 6.106088230202E-01 -2.524671658696E-01 -3.053536754644E+00 -4.594705463638E-01 6.352479250050E-01 1.460696962945E+00 -6.480745820259E-01 -1.107528344107E+00 4.649255541585E-01 -8.032763895602E-01 3.556138023652E-02 2.123220411064E+00 -3.296233923427E-01 -4.367824581276E+00 -5.047746377760E+00 -4.462655914516E-01 2.434338466355E+00 2.727936474643E+00 7.289497272385E-01 2.108719670792E+00 5.219319930748E-01 -5.570158508479E+00 -1.445266052286E+00 -1.482711730647E+00 3.035822968459E-01 9.912744902615E-01 3.924572727198E-01 1.799396982227E+00 5.645690179270E+00 -4.648815022352E+00 -2.798066675389E+00 1.255860099911E-01 -1.401035978088E+01 -6.866692582221E-01 -4.714820615988E-01 1.425526834817E+00 1.125370906325E-01 2.697078418740E+00 -2.672906195624E+00 -4.647408934284E-01 -5.463264581139E-02 -2.783678311995E+00 2.283827759490E+00 -1.110520851419E+00 7.615615597041E-01 3.226964071632E+00 -1.133140223864E+00 3.010423555290E+01
 -4.476020426539E-02 -2.991400113105E-02 -7.069204333221E-01 -1.296132620005E+00 9.827594866986E-01 -7.283913627985E-03 -2.662681442138E+00 1.513148079051E+00 -1.986814373899E-01 1.061813011746E+00 6.065072725151E-01 -9.143612653745E-01 -8.709023875723E-01 -8.468447556617E-01 1.856005102693E+00 1.528139626764E+00 -1.122064536963E-01 1.980091345209E+00 1.683121877749E-01 -1.408169023398E+00 -7.191837899164E-01 1.892503314943E-02 -5.881419138106E-01 1.593086325085E+00 -7.050432087806E+00 3.751098761989E-01 2.932142196534E+00 -1.266908140660E+00 9.359921773554E-01 -1.284469522528E+00 8.084847981809E-01 1.378269414301E+00 -1.844465757212E+00 -9.562094822535E+00 1.656913131043E+01 5.451726364926E-01 4.004863862281E-01 8.488966215108E-02 2.596408532843E-01 -4.529359202358E-01 -8.555492217037E-01 -1.620489665050E+00 -2.178001697313E+00 7.293232336456E-01 -7.147659785683E-01 6.480268817769E-01 -2.608396361075E+00 -1.934237281766E+00 -7.693384219896E-01 -1.482523235990E+00 2.880593719942E+00 2.223932659464E+01
 5.201469057138E-01 -1.493783763068E+00 1.176034602699E+00 8.719713704330E-01 1.334284216736E+00 -2.956093631751E-01 -6.961849946780E-02 -1.433345893377E-01 1.018546041532E+00 -3.909248132553E-01 5.038585478425E-01 -9.140889500502E-03 -9.698404100317E-01 -8.206917231455E-01 1.565963601146E-01 -2.492083690061E+00 -4.463568453911E-01 -3.276597699730E+00 2.337009064666E-01 4.359094672399E-01 -7.658443075525E-02 6.029852125351E-01 -2.224361618332E+00 -7.354933726358E-01 3.550012502699E-01 -1.179777422222E-01 -1.520260229184E+00 1.285775994270E+00 -4.819460839987E+00 2.675135674806E+00 4.325351084008E-01 -1.973811225570E-01 2.622286909323E+00 1.178010880376E+01 -2.229009662878E+01 -7.063645647277E-01 1.997252899886E+00 -8.140108758953E-01 3.946319908167E-01 4.874361840660E-01 2.357026433086E-01 2.565641321329E-01 1.482995124016E-01 1.155862946269E+00 -7.452345019104E-01 -1.481862705638E+00 2.339810105877E+00 6.940811427827E-01 2.369824126665E+00 -2.152989967832E+00 -4.593500080387E+00 -1.657250234055E+01 3.150729063030E+01
 1.541791268870E+00 -4.052492841804E-01 -7.591799724160E-01 1.540304875787E-01 -1.387517304684E+00 1.232542133673E+00 1.184529471857E+00 4.534911245208E-01 -9.168272044621E-01 5.631599076082E-02 4.222933800607E-01 -1.752217926757E-01 -1.858838129272E+00 -4.894308256104E-01 -3.761260226427E-01 -1.052576128343E+00 -1.799417712395E-01 -6.103639854618E-01 6.783015046826E-01 1.485264092602E+00 -5.813733107193E-01 -6.350358923716E-01 5.981939785289E-01 -4.066090795866E-01 1.716152982527E+00 -1.010969845459E+00 -5.760637467537E+00 -1.830881517720E+00 2.668891288803E+00 -3.073466960318E+00 -1.763798805125E-01 -1.101753436097E+00 5.585051322443E-01 -1.854540292139E+00 -7.953790700454E-01 -2.500871718544E+00 -5.280201198101E-01 -1.173292731283E-01 2.811479141765E-01 6.384159394024E-01 5.888273368360E-01 1.301895055450E+00 1.719969719169E+00 7.116616044459E-01 -1.994744132262E+00 1.926000585017E-01 3.472582489748E-01 -1.095072009781E-01 5.987737765488E+00 -4.312475790998E+00 -6.051335140451E+00 -4.331561922326E+00 3.712960111297E+00 1.826813711491E+01