#BIOSYM hessian 1
@Type: Hessian Update
@Units
 distance: 	A
 energy: 	Kcal/Mol
#header
@natom 19

#label
L1      L2      L3      L4      L5      L6      L7      L8      L9      L10     L11     L12     L13     L14     L15     L16     L17     L18     L19

#element
Li Li Li Li Li Li Li Li Li Li Li Li Li Li Li Li Li Li Li

#matrix
57
 4.434905503565E+02
 3.722006512127E+01 3.044552613689E+02
 -2.094236261344E+01 -4.772789337279E+01 3.238516908842E+02
 -4.364135940672E+00 -4.160593892992E+00 -5.994516826720E+00 5.048217673391E+02
 -1.115871626883E+00 -3.432030786372E+00 -2.479138614908E+00 3.570659855595E+01 2.898219543665E+02
 -5.177730478552E+00 -5.915466713687E+00 -1.470809982219E+01 5.629665536137E+01 4.216957731831E+01 4.016537448631E+02
 7.166578554331E-01 1.685698770551E+00 3.646700805194E-01 1.118793528266E+00 -7.417366681635E-01 2.994678601244E+00 2.863573270672E+02
 1.246222805388E+00 1.981642673893E-01 -4.312568882816E+00 -1.350553170527E+00 -4.353670288542E+00 -3.302397653424E+00 -2.531088973036E+01 5.601371790088E+02
 -1.560147635093E+00 3.396762442349E+00 -2.742397908688E-01 6.785005630458E+00 5.572086720251E+00 1.905546534616E+01 5.095967469388E+01 9.993858595112E+01 3.037970621203E+02
 8.534472039468E-01 5.381179057285E-01 6.668657722365E-01 -2.529815219129E+00 1.072785367094E+00 -2.103213248509E+00 -1.514201028453E+00 1.702626428622E+00 -9.171400165878E-01 2.785660959303E+02
 2.381330398764E-01 8.647349032371E-01 2.067782142903E+00 1.681249436914E+00 2.998263484252E-02 8.658548172598E+00 -2.181557862994E+00 -2.680626121593E-01 -3.689866709152E+00 2.695347984977E+01 3.847641620354E+02
 -2.040889867318E+00 -8.914285533405E-01 4.042599004466E+00 7.509085524482E+00 2.882771289322E+00 4.422869120803E+00 -4.404415192171E+00 -1.871021935984E+00 -1.996304929812E+00 1.304774636403E+01 -6.006793192459E+01 3.280004558162E+02
 7.271476435068E+00 8.969915952937E+00 1.437131632034E+01 2.706708639931E+00 -1.535358208483E+01 1.508545783162E+01 -5.078400553944E+00 1.119917212708E+01 -1.882042400826E+01 -6.651121491338E+00 -1.009637605537E+01 -2.339098275770E+01 9.090460956732E+02
 -2.826266307532E+00 -1.057156376457E+02 -8.158179192341E+01 -3.080269120870E+00 -1.412579345337E+02 1.030767149327E+02 1.532702430399E+00 -7.177831308208E+01 6.653187657442E+01 -5.890569572748E+00 -8.104312817630E+01 -7.195391915242E+01 2.729728629075E+00 4.276498741523E+02
 -3.396847088438E+00 -8.974286381807E+01 -7.741870333099E+01 3.572737965728E+00 1.120196518149E+02 -8.832618868823E+01 6.319852138378E+00 5.890076792896E+01 -4.962116308956E+01 5.551266662693E+00 -6.393441192665E+01 -5.324724611039E+01 -3.636125054186E+02 -2.304742233695E+01 9.856220126347E+02
 1.219358642703E+01 1.880408880187E+01 3.833699776821E+01 1.241520523551E+01 -1.277650162200E+01 5.179425495187E+01 -6.392865337489E+00 1.362482543172E+01 -5.414557227384E+01 -5.073757759204E+00 -1.393735487354E+01 -5.024330078292E+01 3.764300097377E-03 3.324920419677E+00 2.440081338419E+01 6.296850347289E+02
 1.524230759661E+00 1.238542043430E+00 2.340962858748E+00 9.035462465774E-01 -5.879796741023E-01 3.432452928248E+00 -4.506497190265E-01 8.212143091919E-01 -3.358173674477E+00 -1.140606351025E-01 -5.866702628178E-01 -3.216560959371E+00 -3.381181028854E+00 1.024634200282E-02 3.477041176157E+00 5.038369369010E+01 1.844651783097E+01
 -1.067539665524E+01 -1.402041217230E+01 -2.651753984041E+01 -4.174567771316E+00 1.535832286280E+01 -2.717086197349E+01 1.173406041120E+00 -1.185423921169E+01 3.748306989140E+01 2.080810371402E+00 9.623231707159E+00 3.690485324458E+01 -1.120607593866E+01 -2.353708823978E+00 -4.996502826011E+00 -2.993184091613E+02 -2.499347046311E+01 4.384448369008E+02
 -5.951631887377E+00 -6.162580869368E+00 -1.233278893403E+01 -2.628037186092E+00 5.995123865609E+00 -1.543861001456E+01 -8.280379800949E+01 1.054734339253E+02 -1.059425343656E+01 -5.019806753750E+01 -6.508242726286E+01 -9.929896629588E-01 -4.521938460483E+02 -1.360147545344E+01 4.192598085118E+02 2.681595154398E+01 4.254025388097E+00 -1.180788187791E+01 8.585093224697E+02
 2.321274085457E+00 1.441172164597E-01 1.473457724052E+00 -9.722462294922E-01 -2.912800776046E+00 3.593311460919E+00 1.130278193643E+02 -1.377181063333E+02 2.663633146908E+01 -7.307630821219E+01 -8.939900549479E+01 -2.192976769265E+01 -8.933033799730E+00 1.477208952219E+00 7.352098105624E+00 -2.119367755293E+00 -1.922482292195E-01 -8.658567584617E-01 -2.807673885526E+01 2.667288976119E+02
 9.479952440159E+00 9.667868745480E+00 2.050417753580E+01 2.210531902753E+00 -1.091718604054E+01 1.884980031807E+01 -3.238235546159E+01 4.203639594633E+01 -3.240290624042E+01 -2.281170733895E+01 -2.639202042977E+01 -3.003141560795E+01 4.248027969441E+02 1.148236254887E+01 -3.855142802218E+02 -2.613200771531E+01 -3.157963196047E+00 2.112123308276E+00 -1.728059025630E+02 -2.185394821143E+01 5.395612084595E+02
 -4.151689558307E+01 5.091997671310E+01 -1.057369053426E+01 -3.411031365907E+01 -4.141088255449E+01 -1.737829342090E+01 2.451654996541E+00 7.403231497135E-01 2.789532746412E+00 3.947043093964E-01 6.899807300814E-01 3.867254950113E-02 -9.742963538079E+01 -2.566749789770E+00 -1.182618546061E+02 3.170680244586E+01 2.322452945238E+00 -2.357519149451E+01 -1.228806522811E+01 2.950504023302E+00 1.447352813151E+01 3.619143544638E+02
 5.141048686115E+01 -5.649688645009E+01 7.454272755991E+00 -3.776719914518E+01 -4.199651461156E+01 -5.932518757441E+00 3.191308813319E-01 5.429329777187E-01 -2.190224517788E+00 -5.708345481665E-01 -4.137882958838E-01 -1.812429068737E+00 9.086169236738E-01 9.362372994717E-01 -2.821559705560E+00 1.379346515048E+00 6.917312780636E-02 -2.136141669491E+00 2.742958356152E-01 8.783876350514E-02 1.052216896679E+00 -7.380912989676E+00 1.111065770676E+02
 -5.730122978198E+00 7.107856428808E+00 1.853456361964E+00 -9.533193244838E+00 -1.042063481112E+01 -4.078218913281E+00 7.507021181849E-01 2.867112661742E+00 -1.947213607175E+00 -7.242328033448E-01 -1.263906622952E+00 -3.960952698550E+00 -9.748709654307E+01 -1.018275623084E+00 -1.209178590373E+02 1.928914040264E+01 1.313758079030E+00 -1.781742804149E+01 -9.723544110521E+00 2.311625309261E+00 4.179973774952E+00 -5.123901510472E+01 -1.028704701422E+00 3.063118264385E+02
 -6.888350481238E+01 -6.679833645250E+01 1.000596383833E+00 -2.263371224553E+01 2.974509494781E+01 9.651325149279E+00 -2.348620886019E+00 -1.552587199115E+00 -1.250875491969E-01 7.208765221496E-02 2.697278314751E-01 2.188361699061E+00 -1.981221340130E+02 9.651556014084E+00 1.523208959475E+02 -1.302379297476E+02 -8.532149046808E+00 -9.288064483535E+01 1.371878620293E+01 -2.852585865584E+00 -1.820366100502E+01 -1.319993685315E+00 -3.157841811966E+00 3.183322188783E-01 4.065782796157E+02
 -6.898799525581E+01 -6.676030310095E+01 4.313913549719E-01 2.819047188709E+01 -3.106160445212E+01 2.064204939620E+00 -7.176940366609E-01 6.187423220822E-01 -2.805607870081E+00 -7.242452522597E-01 -6.737706769256E-01 -2.519386353842E+00 1.043327343027E+01 4.344178193400E-01 -7.518519967033E+00 -1.915760528489E+01 -1.356419602099E+00 -1.558345707862E+00 -3.628627187361E-01 -5.997409134535E-02 -1.391145151785E+00 2.707459564199E+00 -5.585072165447E-01 4.639753579585E-02 3.670426354006E+01 1.476146546408E+02
 -8.576350946218E-01 -2.846753751036E+00 -3.811095926942E+00 -2.056190888805E+00 -1.562134799958E+00 -1.194713121152E+01 4.239202019670E+00 1.469272152984E+00 3.860692017279E+00 5.820250028909E-01 3.098862264784E-01 1.878019535136E+00 1.615508121998E+02 -1.017855396710E+01 -1.275162387877E+02 -7.644893503025E+01 -6.740565872376E+00 -1.353942338241E+02 -1.296022017029E+01 3.123326335769E+00 1.876248687409E+01 -2.769750381767E+00 2.271412576598E+00 9.812760352578E-01 -7.206034375922E+00 -1.106494042981E+00 3.015783464394E+02
 -3.803194768539E+00 -5.307041139488E+00 -9.556069447640E+00 -9.843228750324E-01 5.870988575413E+00 -1.168178005764E+01 -3.947815145894E-01 -7.598030407991E+00 1.005858817482E+01 -6.531387489902E-01 3.776785017612E+00 1.247783571920E+01 -4.234425022742E+00 2.019855130163E-01 -5.491790561797E+00 2.095513095467E+01 1.123647449332E+00 -5.192888291112E+00 -1.403906690143E+01 1.677121958729E-01 -1.689216441964E+01 -7.898109733978E+00 -4.352847353767E-01 -4.365889858832E+00 5.665665932053E+00 2.124542695344E+00 -9.056768492830E+00 1.663687412459E+02
 7.011003964820E-02 1.850898138278E-01 3.909308464324E-01 8.466790983083E-01 3.057662408359E-01 1.503537559355E+00 -4.486180034337E+00 -6.088604016868E+01 -5.821519027340E+01 1.203304092687E+00 -5.515061510670E+01 5.371167869057E+01 1.039825933517E-01 5.565753417726E-02 -2.737457640303E-01 -2.828115310294E+00 -8.216219766423E-02 2.236465273570E+00 6.387562480647E-02 -2.621879721063E-01 -1.590129357108E+00 1.265238866803E-01 -8.447452222067E-02 -5.123952211747E-02 -5.563997107444E-01 -1.327853131082E-01 5.948905848353E-01 -8.559187479525E+00 1.172855108380E+02
 3.416922176103E-01 2.811787467062E+00 8.252684215296E+00 9.545098761836E+00 5.207162078737E+00 2.484991647207E+01 -1.090353473134E+01 -5.985894296563E+01 -6.364220901215E+01 -5.255886162257E+00 5.368548039785E+01 -5.608837440649E+01 -1.841408274314E+01 -2.223146043153E+00 2.466139315408E+01 -7.448974969563E+01 -4.135727950836E+00 5.081907093636E+01 -1.368066723788E+00 -5.903675372271E+00 -6.058503877993E+01 2.950552396813E+00 -2.091960667065E+00 -3.558675933310E+00 -4.492974094608E-01 -3.436648275218E+00 4.848325305059E+00 -1.427832910001E+02 1.886689278713E+01 3.481700843384E+02
 2.163727754144E-01 -9.578122465591E-01 6.126447058966E+00 9.205352886964E-01 7.013509286672E-01 8.200731791487E+00 -1.007519154274E+00 4.291140771931E-01 -2.710338944490E+00 -1.812065784007E-01 -4.282166109895E-01 -2.174687502325E+00 -1.830863994479E+00 3.732714887663E-01 -6.600596318247E-01 -1.134265371790E+01 -6.373963156876E-01 6.333205865700E+00 1.337947061699E+00 -7.558235587449E-01 -3.012862455112E+00 -9.045921348454E+01 -2.409106243595E+00 9.050296099106E+01 -2.328393866671E+01 3.402130761613E-02 -2.671286901059E+01 2.534601142702E+00 -2.878523215479E-01 -3.978753681182E+00 1.157976920946E+02
 -2.526523150679E+00 -2.307279760847E+01 2.458602571530E+01 1.445484692675E+00 -2.118404772863E+01 -2.298189766660E+01 -1.107780497176E-01 1.767634615870E-01 1.237619490044E-01 3.221102124199E-01 -1.875041362158E-01 5.121578159384E-01 -3.101355165262E+00 -2.377895423740E-01 4.168383842609E+00 -2.598657992341E+00 -2.427410951047E-01 1.940954863610E+00 2.626246495131E+00 -1.627073007995E-01 -2.739159064907E+00 -2.859649687141E+00 -1.634560615313E-01 2.148099135548E+00 2.518204847372E+00 -2.257612473217E-01 1.354334397241E+00 -2.337700635299E-01 -1.715907671961E-01 6.265554947510E-01 1.744147329356E+00 4.494402300902E+01
 4.603189215211E+00 2.599915161186E+01 -2.486800737943E+01 -4.642889615703E+00 -3.218347548319E+01 -3.712351166701E+01 3.496438874718E+00 3.329156154962E+00 -3.650777898515E+00 6.885200122596E-01 1.476046099435E-01 -8.195164650852E+00 2.279619444194E+01 8.965612617405E-01 -1.714908864954E+01 4.222238762241E+01 2.154722833005E+00 -3.619392040672E+01 -1.335612518236E+01 3.657993302559E+00 2.423020127678E+01 9.195306067791E+01 4.621847321709E+00 -8.024744032014E+01 -3.419629561058E+01 4.218980709569E+00 -3.104959247613E+01 -1.027957886519E+01 -4.001875884575E-01 -3.044266291468E+00 -6.269059320023E+01 -5.232837325550E+00 1.845913004719E+02
 -1.723036062863E+02 -7.213958564383E+01 1.356809289992E+02 -1.088998744145E+01 -5.673627027944E+00 -2.650449470522E+01 -7.107492604956E+01 -2.838890485840E+01 -6.954914169877E+01 3.392440415188E+00 3.730497578214E+00 6.139974152078E+00 1.414015122436E+01 -5.103635768768E+00 -1.708310292000E+01 7.084051699760E+01 4.282858635004E+00 -4.648788674977E+01 -1.906025541640E+01 3.557793737819E+00 3.509936190762E+01 -6.516671581642E+00 2.610828414408E+00 1.816442010322E+00 1.955773590182E+00 4.136757635625E+00 -9.722889407305E+00 -2.099302165841E+01 9.474050523283E-01 1.640252715737E+01 5.610571011098E+00 4.276194971450E-01 3.253659931469E+00 3.887364654645E+02
 -5.490562251068E+01 -1.853483721678E+01 6.812864980949E+01 -1.881660767498E-01 -5.653192823456E+00 5.614716637851E+00 -2.645252450720E+01 -7.903786831587E+00 -3.751265110634E+01 -1.550271502659E+00 -1.266997829654E+00 -1.299682288787E+01 2.950725364239E+00 -3.869217172535E+00 -7.739587504973E+00 3.336315939185E+00 -5.238900696968E-01 -1.090513624077E+01 -4.367830271249E+00 -1.359807368094E+01 -2.425983818345E+00 5.811740745883E+00 -4.572165838826E+00 9.601742605646E+00 -5.815457045467E+00 -6.059198500996E-01 9.790082989285E+00 1.433156662411E+00 -6.453328521603E-01 -1.328634950301E+01 -2.226599044207E+00 -2.559240317389E-01 9.682556102685E+00 -2.171819167206E+01 1.852857699379E+02
 1.499748231414E+02 5.281680790330E+01 -1.275412571652E+02 -2.802301114832E+00 -4.616631412539E+00 -3.349363030155E+00 -7.591196708734E+01 -2.472411863528E+01 -8.214035652962E+01 2.077935085593E+00 -9.221774462756E-01 -4.519761106064E+00 7.057765699250E+00 -2.731112000721E-01 -2.941823309073E+00 1.308237746584E+01 1.057828220642E+00 -1.200863996576E+01 -8.054475595417E+00 -4.907159930923E+00 5.520467870183E+00 4.662808351191E+00 5.208932369037E+00 -1.751614431919E+00 -1.466615506956E+00 6.772644690926E-01 1.115988033361E+00 -5.672979573113E+00 -2.001368817173E-01 -2.483274891464E+00 -3.136942086272E-01 -6.474339427925E-01 6.042923004354E+00 -2.116558317995E+01 -5.510231852372E+01 2.310020192523E+02
 1.853631535194E+00 3.738418329194E+00 1.017986120476E+01 -2.546275008423E+02 -7.764573299591E+01 -1.886758611725E+02 -5.842353829355E+00 -5.450726900214E-01 -1.184808942519E+01 -9.355511214124E+01 -3.358333492574E+01 8.517614963244E+01 -2.794813543590E+01 -3.809623427867E+00 1.443801900454E+01 -7.123250632580E+01 8.607408004441E-01 4.208392435092E+01 1.830958715294E+01 -3.619820479277E+00 -2.953780233493E+01 5.596660724988E+00 -6.784036636398E-01 -1.752060485524E-02 -3.134669412484E+00 -2.932760097880E+00 7.640533052299E+00 1.672232052732E+01 -1.088658797355E+00 -1.829264371210E+01 -5.542493531829E+00 -6.143681767118E-01 1.457324887511E+00 1.868697907870E+01 -8.944728337536E+00 -9.619633997346E-01 3.809662003386E+02
 4.998418782848E-01 6.949337531573E-01 9.308128015944E-01 -7.047294838312E+01 -2.217558664189E+01 -6.320533050355E+01 -8.286909221164E-01 4.210688694661E-01 -1.232925547737E+00 -2.385634864074E+01 -8.387436608945E+00 2.692051824504E+01 -1.805427735757E+01 -8.477110528973E+00 7.940551928036E+00 -1.268321113803E+01 -8.419711358918E+00 1.299823193288E+01 8.350077039082E+00 -1.522130272975E+00 -9.773909624034E+00 2.296530138224E-01 -5.737975324410E-03 -5.508054851244E-01 1.053808075836E+00 -9.357362607943E+00 -6.219276383358E+00 2.164764971457E+00 -8.440791480641E-02 -1.079502420064E+00 -3.611739418426E-01 -2.203671545160E-02 -8.555669239205E-01 1.189293424820E+00 -1.246508725655E+00 -4.863259102627E-01 6.202074623331E+01 1.044139266428E+02
 5.737478236273E+00 5.919683421875E+00 7.732082427759E+00 -2.192005786547E+02 -6.943266137549E+01 -1.709158892961E+02 -4.424869457239E-01 5.206718446540E+00 -1.158544753698E+01 9.435097981474E+01 2.291793754510E+01 -9.967211643332E+01 5.196276279098E+00 5.793027549703E-01 -3.152727953716E+00 -8.255683821515E+00 3.021912800324E-01 -1.069306470389E+00 -2.122271113405E-01 -4.576816212116E-01 4.862606615979E+00 7.254397126861E+00 2.192178810051E-01 4.200599744079E+00 -5.684107784987E+00 -8.161559662317E+00 -2.372787327795E+00 -1.067881710482E+00 -8.951811487445E-01 -1.351216918946E+01 -2.846056127553E+00 -7.345276771942E-01 1.121467835682E+01 1.523587954527E+01 7.643896595500E-01 4.918109713439E+00 1.042543929449E+02 4.611307941302E+01 2.847177666319E+02
 -1.529625014971E+02 5.806899017062E+01 -1.013361433575E+02 7.709597297824E+00 -3.572926542047E-02 2.891596835041E+01 -4.789377796188E+01 1.422939274359E+01 2.543900941994E+01 -2.584530593738E+00 -3.816459829233E+00 -1.353141428098E+01 -2.594685426750E+01 5.063793140274E+00 1.625295944657E+01 -8.271457377112E+01 -1.042752396515E+01 4.585612627467E+01 2.033774197776E+01 -4.716241544454E+00 -3.292030811553E+01 8.657276946044E+00 -1.822875618420E+00 2.615999614151E+00 -4.912642297120E+00 -3.009667872463E+00 1.339195752453E+01 1.865384092220E+01 -1.576824875262E+00 -2.504426826082E+01 -5.709563566752E+00 -3.674059289041E-01 4.800027686520E+00 2.516268778484E+01 -1.991508012429E+01 -5.993054301432E+00 -2.263706584333E+01 -1.918632495227E+00 -1.241238427437E+01 3.752859822589E+02
 4.930270493857E+01 -1.260464771942E+00 5.795136897032E+01 6.789066651677E-02 -1.098953083439E+01 1.383859521759E+01 1.111083177577E+01 2.141525699735E+00 -3.238006883610E+01 -1.075538909303E+00 -2.702228033536E+00 -2.385504113741E+01 2.130516787925E+01 -3.167359570961E+00 -8.425930766400E+00 -1.108541102977E+01 -6.989160483313E+00 -1.007014634522E+01 -2.658367523060E+00 -1.029297104385E-01 7.478604646628E+00 1.264761525620E+01 1.610954511790E+00 9.709968958666E+00 -1.115871630470E+01 -4.097894731792E+01 4.016660447662E+01 2.436780731777E+00 -1.552377152328E+00 -2.697604295810E+01 -3.291227884387E+00 -9.105679888638E-01 1.912211961540E+01 3.518419844671E+01 -4.807551393726E+00 3.455032234240E+00 -2.216116062150E+01 -3.139181107629E+00 2.512174356494E+00 1.254147062132E+02 3.040212358102E+02
 -1.224737985006E+02 3.306764628762E+01 -9.787271635559E+01 -2.297580582451E-01 -6.625255483774E-01 -5.400730098522E-01 4.434371711549E+01 -9.816104596966E+00 -3.986689734397E+01 -2.904573995473E-01 -7.530918370664E-01 -1.373332374226E+00 3.940266382355E+00 1.116127574808E+00 -3.249662494162E+00 7.434302828549E+00 -5.933405414141E-01 -4.755234880586E+00 -2.281640287829E+00 1.137546971919E+00 4.018332100216E+00 4.312142275064E-01 1.249168512767E+00 1.313956769320E-01 -8.928902600159E-01 2.540843792106E+01 -1.740816222292E+01 -6.408468658135E-01 1.188505310981E-01 1.204814376137E-01 -1.588673662812E+00 -1.511795921446E-01 1.416223891773E+00 5.243686643326E+00 -4.814282230256E+00 2.169058606650E+00 -9.963743729729E-02 -1.455618617249E-01 1.480769570881E+00 1.529950718892E+01 -1.039745363088E+02 1.832712792333E+02
 -2.907648586264E-02 -2.583881191406E+00 -8.524270594240E+00 -1.919360258342E+02 5.516946739450E+01 1.266599706045E+02 7.044974818892E+00 1.512493463215E+00 8.920074365721E+00 -8.783510753064E+01 3.165709552601E+01 -8.519032662041E+01 1.235239695619E+01 9.055460122091E+00 -1.681249516732E+01 6.827716028926E+01 4.418619191998E+00 -4.575537460339E+01 -1.919843951370E+01 7.560475494767E+00 3.342571876386E+01 -5.568952912889E+00 2.583959379035E+00 2.658656879272E+00 2.111357504823E+00 3.164924916901E+00 -7.721074786551E+00 -1.999952304957E+01 1.089369338827E+00 1.443960718195E+01 5.237159174503E+00 -1.349826634854E-01 3.720405385503E+00 -1.418365773467E+01 1.512638633602E+01 2.141144751392E+00 1.627228963128E+01 -6.010088299687E+00 1.970546538972E+01 2.476503513985E+01 2.858414937493E+01 1.002731182716E+00 3.663528384826E+02
 -2.150942477607E+00 -2.368647558837E+00 -5.163404107692E+00 5.433300782120E+01 -1.318090758683E+01 -5.699486815246E+01 -2.585638346614E-01 -3.127061378973E-01 7.123364065844E+00 2.818611789501E+01 -9.646198468934E+00 3.353209541884E+01 2.434449309275E+00 -1.220464855835E+01 5.094505703169E+00 -3.565144349642E+00 9.922248873294E-02 8.518011486687E+00 4.478667823795E+00 -2.109515506972E+01 5.908223173299E+00 -3.425916285849E+00 -7.441980924025E+00 -8.206272109966E+00 2.323669428074E+00 1.277571448976E+00 -7.428068292265E+00 -1.239773853119E+00 5.735928467191E-01 8.643525503379E+00 1.361188879444E+00 -1.138737606514E-01 -5.624125934055E+00 -1.093785519242E+01 1.013164967409E+00 -3.584411646180E+00 1.135184275646E+01 -5.048835888332E-01 5.540414252830E+00 7.340916979730E+00 -1.165565394569E-01 6.807618885478E-01 4.893093873851E+00 1.893276031991E+02
 2.451227023408E+00 2.665962892087E+00 2.154500449705E+00 1.551223887386E+02 -4.865961072453E+01 -1.277963531140E+02 2.490665652478E+00 3.096350323293E+00 -5.383498689292E+00 -8.481819076673E+01 2.300238374575E+01 -8.392604459082E+01 6.693087199723E+00 -4.651304783887E-01 -2.592095676552E+00 8.232003440013E+00 5.854570541829E-01 -8.553587200544E+00 -5.366224821017E+00 1.023168984479E+01 3.341238708818E+00 5.703933355580E+00 -4.815005868980E+00 -2.377859114643E+00 -4.714689014253E+00 4.881879920285E-01 2.008712522159E+00 -3.103256656842E+00 9.078368881164E-02 -5.164424862158E+00 -1.264816461900E+00 -1.028141708107E+00 6.511049969475E+00 4.026819651053E+00 4.240777842958E+00 2.868884643187E+00 -7.751994682197E+00 7.385079815682E-01 1.498990896140E+00 -2.920196181169E+00 6.551962713150E+00 1.471826512209E-02 -3.492240379061E+01 4.234434645209E+01 2.266451765392E+02
 1.017449145855E+00 1.552363737568E+00 4.037050381700E+00 -8.275314915830E-01 -3.648637266414E+00 6.667848749826E+00 -1.094977903191E+00 6.418158926979E-01 -5.177779575617E+00 -1.284794250092E+00 2.593977352460E+00 -5.511368691516E+00 -1.000654265622E+00 3.055795317577E-01 1.653448019287E+00 -1.189629361956E+01 -8.370750612054E-01 4.862398364168E+00 2.332536267122E+00 -4.027898265205E-01 -4.024904166906E+00 2.346601522112E+00 4.785949147693E-02 1.343013779144E+00 -8.248531668673E-01 -9.462918876578E-01 4.555520869763E+00 3.104540201265E+00 -5.781287054405E-01 -5.949960287960E+00 -1.112618401969E+00 3.016052587642E-01 2.139289584978E+00 8.259670711560E+00 -3.140146740915E+00 1.346267141097E+00 -3.925603936388E+01 4.095140865211E+01 4.256879663388E+00 -7.453091826453E+00 -4.220919444401E+00 -4.608943405221E-01 -8.764059796435E+01 -1.059482016740E+02 -2.416451444099E+01 1.284290260367E+02
 -2.936744693269E+00 -1.147637300165E+00 2.288835229691E+00 7.911131949731E+00 5.119848308756E+00 2.250074438927E+01 -6.020127691744E+00 -5.961589778525E+00 6.076861852210E-01 -4.670697953668E-01 -9.106762739130E+01 5.626188694459E+01 -3.518470713792E+01 -1.337740886358E+00 2.390084035899E+01 -7.440465811365E+01 -4.967161138731E+00 5.770780574537E+01 2.163399137338E+01 -6.301361634550E+00 -4.103643458648E+01 -1.213813370524E+00 -3.832383501479E+00 -7.762974944184E+00 5.981896991300E+00 -3.626082216563E+00 -1.208049068997E-01 1.977117332736E+01 -8.561393735871E-01 -2.876278035398E+00 -2.204941645019E+00 1.010507146471E+00 -1.455949262068E+01 2.777497681467E+00 -1.867728902806E+01 -6.108894505736E+00 3.201747786781E+01 -4.108717471655E+01 -3.189730921784E+01 -1.507095853209E+01 -3.485273531230E+01 -2.849734283855E+00 -1.037334184125E+02 -1.083293830994E+02 -3.898218969261E+01 6.065600399290E+01 2.776334285977E+02
 -1.323153140837E+00 -1.191762728860E+00 -5.970454497058E-01 -5.451123128835E-01 -4.956301805526E+00 -3.071963874072E+00 -1.164982724522E-01 -1.863508953136E+00 1.257490413458E+00 -1.835306125705E+00 4.733057760890E+01 -2.278109082979E+01 -2.839212741036E+00 7.036613738201E-01 1.835746152794E+00 -5.119200567938E+00 -4.090876524250E-01 4.606394730870E+00 1.572923812297E+00 6.354229921215E-01 -3.175570168599E+00 -1.352506014083E+00 2.983327678829E-01 -1.281517647713E-01 8.568410697326E-01 6.942543711472E-01 2.872626867501E-01 8.861055280281E-01 1.502126759106E-01 6.822423293186E-01 2.705062620383E-01 6.940403044017E-02 -1.608236060858E+00 -2.008790006519E+00 4.633812033954E-01 -1.676199656437E+00 1.157902428836E+01 -8.778442250848E+00 -4.354325641419E+00 1.058116218217E+00 -1.589323690094E+00 2.023495222148E-01 -2.807849768827E+01 -2.812316650540E+01 -7.897643217806E+00 1.824694520212E+01 -3.949915699904E+00 3.738931499013E+01
 -4.202532903572E+00 -4.834821115061E+00 -7.567700332567E+00 1.571757802891E+00 5.785629342034E+00 -4.111820001151E+00 -1.224004349100E+00 7.758487009594E+00 1.432185640757E+01 -4.005568318012E-01 5.933577329293E-01 9.254196120852E+00 -4.153090559379E+00 2.133506946664E-01 1.030739049525E+00 4.019001064522E+00 -2.623294044680E-01 3.185413882927E+00 -5.938603057329E-01 -1.629934434199E-01 -3.211158279176E+00 -5.064481095327E+00 -5.835923598495E-01 -4.053276416427E+00 4.116045690085E+00 3.520526074588E-01 -4.925398640334E+00 1.215711653851E+00 6.934227681393E-01 1.050253733879E+01 4.756022217616E-01 4.958528192533E-01 -8.660284857680E+00 -1.558800285237E+02 1.332751342662E+02 -4.264070042091E+01 8.461217226752E+00 1.106606990059E+00 -3.083277379864E+00 -1.897218880289E+02 -2.162152590631E+02 5.967209424151E+01 -1.114588111286E+01 1.936725945489E+00 -2.951750180945E+00 2.621577600872E-01 1.443542898880E+01 1.702102236711E+00 3.477354019192E+02
 -6.842344047322E+00 -2.751477261499E+01 -2.517695472988E+01 -1.335529473975E+01 2.620121190954E+00 -4.717222944374E+01 1.727816525785E+01 -1.964169439151E+02 -7.636415478389E+01 4.438980878248E+00 6.661384133745E+00 2.773613679449E+01 2.248263101282E+01 -2.397599233663E+00 -2.039731165620E+01 1.069885349135E+02 6.964195742536E+00 -5.961390485599E+01 -2.877304228305E+01 5.194738606828E+00 4.277994279778E+01 -1.750573694657E+01 8.939768650539E-01 -6.207804170395E+00 1.223491336093E+01 5.190634832386E+00 -2.503535603315E+01 -2.866063273338E+01 2.590024016757E+00 4.586074694475E+01 9.018171398581E+00 7.522758716102E-01 -1.357970299380E+01 8.327988821763E+01 -9.843326086725E+01 3.901048183156E+01 4.345458794256E+01 5.159962969981E+00 1.868133794121E+01 -1.508764926847E+02 -1.824317233707E+02 6.963925623028E+01 -4.533326852153E+01 -1.131588983250E+01 1.268061191876E+00 1.303503079079E+01 3.603717483181E+01 -6.618993795893E-01 5.439745994103E+01 4.500382592356E+02
 -1.470635656334E+00 1.407506518781E+01 -6.037835768452E+00 1.823417685974E+00 2.913429618268E+00 2.729529783271E+00 5.281763905414E+00 -1.094109774202E+02 -5.732213175670E+01 1.234195423894E-01 5.622085170103E-01 3.011119966672E+00 -7.069485548180E+00 -7.410550861310E-01 4.805370676650E+00 -1.300349962311E+01 -8.362937476018E-01 1.111929083132E+01 3.748092331459E+00 -1.945335483224E+00 -7.832439554816E+00 -1.542989635904E+00 -1.025979325078E+00 -1.564659215522E+00 1.161607272198E+00 -2.744033608490E-01 -7.184735906162E-01 2.710194347408E+00 -1.040926603428E-02 1.246622269428E+00 3.484238212748E-01 1.792617158143E-01 -3.966238548498E+00 -4.712413874869E+01 3.327171845803E+01 -1.678100034301E+01 7.882996376729E-01 4.122442253952E-01 -4.186564492880E+00 6.454445460826E+01 5.770810995617E+01 -2.265493682309E+01 -2.264686205180E+00 1.519882432070E+00 -2.220433671754E+00 -5.049397525400E-01 5.364739362978E+00 8.976798948313E-01 -2.229828242512E+01 -2.148498027146E+00 1.027133746808E+02
 -1.032112898779E+00 -2.513910485913E+00 -6.887231837866E+00 -6.455062846384E+00 -2.554794530711E+00 -1.620085043420E+01 1.871811086193E+00 4.587874910697E-03 9.510286419041E+00 -1.428379696769E-01 2.193240687961E+00 6.537635013412E+00 1.644544671971E+01 1.200377569211E+00 -1.563796707740E+01 4.490966174161E+01 1.891213716388E+00 -2.867708026735E+01 -2.669571696188E+02 1.932453678764E-01 -1.467852174997E+02 -8.450191225013E+01 -6.988744761732E-01 8.712380115176E+01 1.441862563096E+00 2.775710265321E+00 -4.558389765492E+00 -1.104332398526E+01 2.327630206676E-01 1.201462730882E+01 2.887253865786E+00 -1.810823174133E-01 -3.466130467270E-01 -1.686879136554E+01 9.803652683449E+00 9.020020723584E-01 1.392859808519E+01 9.010197058049E-01 7.623682923634E+00 1.834735241943E+01 1.584608112423E+01 -1.644440257196E+00 -1.551217157096E+01 -7.775239091477E+00 1.461656112473E+00 4.388166507854E+00 5.761716207908E+00 -7.240025789096E-02 -6.191055155159E+00 -2.928109441107E+01 3.376965996214E-01 3.340479113881E+02
 1.005023285141E-02 -1.222151512661E-01 -7.208080238420E-02 2.437129629831E-01 1.638017469324E-01 -1.314493533975E-01 4.918734643701E-03 -4.438195928441E-01 4.323844837244E-02 -2.177133945699E-01 7.031189498483E-02 -1.934588432870E-02 1.622087950115E+00 1.223377868896E-01 -1.375052920827E+00 1.487916620181E+00 8.742570308654E-02 -9.013319296262E-01 -3.108083354839E+00 1.258789211531E-01 -6.000194597075E-02 -1.597345101622E+00 1.463306741580E-02 1.548349832588E+00 -3.790941393264E-01 3.972755792845E-02 2.172539144854E-01 3.199957433984E-01 2.277106108784E-02 -3.801275491361E-01 -9.997209059462E-02 -5.703413435287E-02 7.666930244254E-03 3.916608958795E+00 -5.508418179295E+00 -1.831634486545E-01 1.362795067871E-01 -1.124264602176E-01 -1.957618784773E-01 -5.861084810389E-02 -6.763308194314E-02 1.465004875017E-01 -4.318333972941E+00 -5.996893526159E+00 2.524626048880E-01 -1.937669988569E-01 -3.779556379376E-01 5.859525737089E-02 1.885250717603E-01 7.789799164940E-02 -2.821648080488E-02 3.599521566974E+00 1.186809520160E+01
 -1.554674429747E+00 -2.337871247916E+00 -5.062414497691E+00 2.489702172368E-01 2.737512563336E+00 -4.100068558044E+00 -5.160210561496E-01 -1.645383512809E+00 7.025699841768E+00 3.695648666613E-01 1.651536474893E+00 7.225084686257E+00 -4.924031595574E+00 -3.385089839398E-01 2.382816047595E+00 2.438530540560E+00 3.416620612546E-02 2.547796193077E+00 -1.642464235999E+02 -2.174787316844E+00 -1.091713793651E+02 8.151717470509E+01 1.044992197371E+00 -8.903058060480E+01 4.747397459294E+00 5.274807018432E-01 -5.110792883982E+00 -6.681817291150E-01 3.328881018474E-01 9.167220470531E+00 1.275659050537E+00 3.097685304927E-01 -6.782119437422E+00 -9.629072883502E+00 -2.891826244260E+00 -2.141118831364E+00 6.729311759489E+00 1.701200910301E+00 -7.485501834443E-01 7.882139366279E+00 -1.595972879576E+00 -1.576416268384E+00 -9.515615931580E+00 1.842836446596E+00 -1.841444679542E+00 1.123009108863E+00 1.162109569506E+01 7.197168570525E-01 7.226465864902E-01 -1.010135770046E+01 2.360796004850E+00 7.544507167483E+01 -3.034172727630E-01 1.930412860409E+02