#BIOSYM hessian 1
@Type: Hessian Update
@Units
 distance: 	A
 energy: 	Kcal/Mol
#header
@natom 19

#label
L1      L2      L3      L4      L5      L6      L7      L8      L9      L10     L11     L12     L13     L14     L15     L16     L17     L18     L19

#element
Li Li Li Li Li Li Li Li Li Li Li Li Li Li Li Li Li Li Li

#matrix
57
 2.424618434213E+01
 -3.755161372742E-01 6.310861841426E+00
 7.798095966375E+00 5.255787092243E+00 1.731018419529E+01
 1.147244676760E+00 -1.880064595787E-01 9.622376910468E-01 3.244797688024E+01
 4.899192027295E-01 6.215714649355E-01 9.201410101288E-01 5.449601563723E+00 2.246756531976E+01
 -7.905770691512E-01 -3.895723590906E-01 -1.204730578583E+00 2.032003398178E+00 -4.141581973256E+00 2.088045943236E+01
 -1.573085885319E+00 -1.776324200219E-01 -1.740832321939E+00 -6.126061634952E-01 8.449167988165E-01 -6.677245002287E-01 2.852843799033E+01
 1.845561103798E+00 8.217015208588E-01 -2.684563618587E-01 5.221628931940E-01 2.454861659201E-01 -1.697637037278E+00 -4.379913128906E+00 2.114768724434E+01
 -5.346401924728E-01 -7.617279799422E-01 2.220359788978E-01 -6.102905193904E-01 3.075315090131E-01 -1.529558603139E+00 1.165090090893E+00 2.363744040828E+00 1.934684194357E+01
 8.810513708130E-01 -2.948333314131E-01 -3.459171105604E-01 -1.413145757537E-01 -1.856998575164E-01 1.163635927768E-01 2.341117958694E-01 2.512097378469E-01 -1.857642502951E-01 1.286025489226E+01
 9.250693646796E-01 -5.217936380472E-01 1.222087360648E+00 -1.330735211034E+00 1.263457807174E+00 -1.308793444885E+00 -2.142412198116E-03 -1.336290001665E+00 8.697231342322E-01 7.217130423827E+00 2.349780928206E+01
 8.070056175852E-01 1.944291229543E+00 -8.724570389100E-01 -3.895948374296E-02 1.219770634921E+00 1.412006233417E+00 3.153738779753E-01 3.903133550421E-02 1.198804463494E+00 2.530774839451E+00 -1.055461576353E+01 2.304766977347E+01
 -1.081949109510E+00 -6.690619361542E-01 -9.785101386479E-01 8.362830468560E-01 -4.165241416311E-01 -4.638676474927E-01 -6.235784663533E-01 -6.931417351152E-01 2.385463339128E-01 -3.658490040560E+00 -3.465166984795E+00 -1.853738169725E+00 1.262583622387E+01
 -6.403645655091E-01 2.348004425753E-01 -3.134264150927E-01 -2.778135537198E-01 3.487866106862E-01 4.105135000510E-01 1.591663596285E+00 -5.872882733361E+00 2.013341768394E+00 -4.588480474160E+00 -3.211074445388E+00 -2.451068984659E+00 1.758288535985E+00 1.168005852270E+01
 -9.194177246230E-01 1.015232989661E+00 9.344182725042E-01 9.126608259725E-01 -3.488809430753E-01 -2.224512741856E+00 -4.018413832577E-01 2.573562131174E+00 -3.607313899243E+00 -2.931815284795E+00 -1.344894627906E+00 -9.446487470563E-01 1.149896808830E+01 1.578820884495E-01 2.459701768005E+01
 -1.590327464012E+01 3.440050887687E-01 2.503178479056E+00 -8.797506607334E+00 -6.246113408593E+00 5.747297036781E+00 -8.386507207536E-01 -2.817740469856E+00 1.236297807665E-01 -2.250845521393E+00 -9.375262084563E-01 4.965820101719E-01 1.456433987051E+00 1.553607959490E-01 1.291619192715E+00 3.953353515268E+01
 1.315377202882E+00 -3.650683677278E-01 -1.197229978457E+00 -6.082743931695E+00 -5.686678225125E+00 3.290113420999E+00 -5.013559371065E-01 6.490367864515E-01 -1.393434841170E+00 1.221670633102E-01 -3.638496765761E-01 3.037726147764E-01 1.159615304588E+00 -8.442985913587E-01 -1.565096346734E+00 9.028149299111E+00 3.002235087616E+01
 1.730087368896E+00 6.196230618106E-01 -7.736729957221E-01 4.958405447532E+00 5.854677177292E+00 -4.000537205699E+00 -1.524136154950E+00 -1.621121950300E+00 -2.567974572540E+00 -2.002428914361E-01 -2.972190298669E-02 -7.886701499444E-01 3.747701222260E-01 4.215358065324E-01 -8.198622187739E-01 -6.454877846771E+00 -1.075596095513E+00 2.804692988886E+01
 -4.918260196273E-01 7.596602282866E-02 -5.843157723553E-02 -2.784139397994E+00 6.039791553926E+00 -3.434082852147E+00 1.089409168371E+00 -4.123003187671E-01 -4.771015784298E-01 9.726484545389E-01 -7.124209459725E-01 5.861869164708E-01 -6.914904721993E-01 -2.753286167476E-01 -1.874905652377E+00 -7.145234436418E+00 -3.298519205420E-01 5.597522630424E-01 2.877757806720E+01
 -2.820121524022E+00 -8.867841132235E-02 -1.336688269171E+00 7.279068142165E-01 -6.437251974149E+00 4.329327038631E+00 -2.295137492334E+00 1.299104098996E+00 -7.375419119233E-01 1.996724404519E+00 5.704129571354E-01 -4.254670821249E-01 -3.698106205621E+00 -5.691993266110E-01 -3.214805238674E+00 3.435585986149E+00 -1.565857111449E+00 5.019949504088E-01 4.223936364648E+00 3.422565927752E+01
 1.027807709625E+00 -1.427272381377E-01 8.537317106133E-01 -1.910826346461E+00 4.914189289025E+00 -3.946110966637E+00 1.135852251751E+00 1.522693975278E+00 2.393756301012E-01 7.742193769929E-01 1.931421950596E+00 -1.306424612853E+00 1.104515524178E+00 -2.191094406002E+00 -2.878868897970E-01 -1.296711729583E+00 1.459168435790E+00 -2.626187438748E+00 -2.717437409108E+00 -1.089557396091E+01 2.795499137566E+01
 1.693466764007E-01 -3.506297953688E-02 1.010964171088E+00 -9.010057936226E-01 -5.458194354742E-01 1.069136726168E+00 -1.384324788341E+00 -5.565272004731E-01 5.276830219608E-01 2.523957212756E+00 2.907909235649E+00 -2.410149412871E+00 -4.449648258857E-01 -3.329886367062E-01 -1.446633842465E+00 3.385941792976E-01 3.125284400217E+00 -1.545425603834E+00 -4.412853967778E+00 2.236441158593E+00 -3.215977706685E+00 2.622967567598E+01
 9.076858502251E-01 -4.481471601244E-01 -4.761931279055E-01 1.267507065957E-01 1.091374363928E+00 -3.393805583063E-02 1.245145383609E+00 -2.000473452324E-01 3.742233771552E-01 4.267509014295E-01 -2.997688829820E+00 -1.029553827712E+00 -1.132091232539E+00 1.646519698616E+00 -1.622987279508E-01 -3.306222715065E-01 4.618891741778E-01 9.394358156412E-01 3.256495979656E+00 -7.126984821889E+00 2.353017934133E+00 -1.664474392545E+01 2.200020983518E+01
 -1.074056344746E-01 5.554638387944E-01 -8.274283938688E-01 1.132840075789E-01 3.525544318988E-01 7.246882378407E-01 1.792183180965E-01 -4.126400093003E-01 -3.093814538020E-01 -1.161521460636E+00 -1.894422552036E+00 6.816648712997E-01 -1.988164009669E+00 2.706365151128E+00 -3.295118628344E-01 -1.097346445472E+00 8.380417482837E-02 1.562006282688E+00 -2.441201142674E+00 4.894610227854E+00 -3.521544156980E+00 1.164648254389E+00 2.920871969699E+00 7.815657974079E+00
 4.586620023036E-01 6.296831367181E-01 8.997994238674E-01 -1.646218561657E-01 -4.368648253346E+00 -2.117471933020E+00 -1.449700497101E+00 2.518683450825E+00 -1.531009665319E+00 1.335625748633E+00 -9.423999750181E-01 -6.582102765969E-01 1.233334711506E-01 -1.506360997657E+00 -1.184353372256E+00 -4.496168449486E-01 2.707758466874E+00 1.075630296383E+00 -9.312779918514E-01 1.514935232825E+00 -1.012071655369E+00 -1.992519106548E+00 4.259024718407E-01 1.352448336179E+00 2.191992503481E+01
 1.330938012593E+00 7.439518698396E-01 6.492351987742E-01 -1.947516701231E+00 -8.965426586232E+00 -4.751895822187E+00 2.010552991785E+00 -7.563633890311E-01 1.520522250202E+00 -5.146135409524E-01 -1.019737342864E+00 -3.136552509227E+00 3.161972322330E+00 8.677954790446E-01 6.736353860953E-01 1.203091240253E+00 2.306414675399E+00 -2.282067023549E+00 -9.415489786777E-01 4.117114562337E+00 -2.814904676150E-01 -2.293106670794E+00 -1.404369874987E+00 -3.590555253964E-01 6.119137893420E+00 2.906374104006E+01
 2.264723935919E-01 -5.294471888847E-01 3.144150428864E-02 -1.870862206018E+00 -6.713960023960E+00 -5.691671757245E+00 9.180333137713E-01 -8.883290508038E-01 6.202177229945E-01 -2.276988160449E+00 -1.019170373697E+00 6.437104714048E-01 8.255326743772E-01 1.141299769878E-01 1.468657537715E+00 -7.977325904801E-01 3.034720214550E+00 9.770345608570E-02 -4.571468962541E-01 -8.948172362744E-01 1.317447693620E+00 4.096149396292E-01 -1.870756757812E-01 -1.715947212752E+00 -8.907683145710E+00 -7.252217769780E-01 1.600961182968E+01
 2.386574185528E+00 1.185706191886E+00 1.530679348505E+00 -4.030564926062E-01 2.750067621544E-01 3.107559189534E-01 -9.102693670077E+00 -6.042067488976E+00 9.621950643407E-01 -9.252591193517E-01 4.136197071064E-02 -3.423647947862E-01 -6.448504125426E+00 3.648831979169E+00 -2.706384466182E+00 2.099011392679E-02 -2.015538592010E+00 3.204848882819E-01 1.512351654062E-01 1.689302454306E+00 -3.347043854189E-01 -1.769007297014E+00 1.986619882755E+00 1.627115039873E+00 2.183068006667E-01 -9.702980640770E-01 2.138794049396E-01 2.950065063601E+01
 9.463954115017E-02 -1.290088028709E+00 7.196947050398E-02 5.782491992709E-01 -2.494996889471E+00 -1.794388692781E-01 -7.141098474228E+00 -4.651511951041E+00 9.816944797749E-01 -6.780491224872E-01 -3.201032127639E+00 1.063871839203E+00 3.041505812778E+00 -2.519629741799E+00 -1.031037409932E+00 1.221405031915E+00 -6.707007957580E-02 2.316803659261E+00 -1.314204287548E+00 5.075144584768E-01 -2.135597290708E+00 9.863718314369E-01 2.199239753679E-01 -6.521638122442E-01 -7.241451691097E-02 7.127493995239E-01 8.624410281352E-01 -1.682420591403E+00 2.017359566071E+01
 -2.594218593805E-01 -8.282526437069E-01 1.074343895527E+00 -1.805477736143E+00 1.295745405056E+00 5.675017835609E-01 2.668565213786E+00 -6.574496452818E-01 -6.687192619390E-01 1.603710174186E+00 2.218980230909E+00 -5.864802227180E+00 -2.043665292745E+00 6.249213059674E-02 -3.216531317738E+00 -5.093792723564E-01 2.891726511387E+00 -2.676303399532E+00 1.872273770010E+00 -7.764035021217E-01 3.051420434360E-02 1.616170416090E-02 -3.798483450704E-01 1.341419363180E+00 8.863716023468E-01 -6.686414897174E-01 4.533806559315E-01 3.532987529303E+00 -2.127506212224E+00 3.329088428414E+01
 -5.405875460235E+00 1.895690156205E+00 -2.419973724131E+00 -1.629422653963E-01 -7.382428854934E-02 5.533817395194E-01 1.771804357464E+00 -1.959324594257E+00 7.547373934570E-01 -4.062417951066E+00 3.573069846585E+00 -3.195179443860E+00 -1.086617293670E+00 -9.792724174985E-01 -1.652793458815E-01 -1.373427756859E+00 -1.849423551980E+00 3.488570884284E+00 -6.669404262978E-01 -3.469456514401E-01 -1.728098812745E+00 -7.593808350947E-01 -4.801052831212E-01 1.601906315885E+00 -4.432377470602E-01 1.132475263774E+00 -1.626110635834E+00 -1.971787400956E+00 -4.610678525136E+00 -1.115815204852E+00 2.495425017059E+01
 1.189258204223E+00 -3.548697497494E-01 7.021939770332E-01 1.392673300564E-01 -8.415200937167E-01 9.896575270322E-01 -4.651601762450E-01 1.909954135669E+00 -2.614019582430E-01 3.023921229765E+00 -3.654250911242E+00 1.731850573515E+00 5.947789335233E-01 -7.366621425833E-01 8.034144496841E-01 -4.745920544364E-01 -1.962171878944E+00 4.187629922721E+00 7.110390164242E-02 1.177096132074E+00 3.178168437997E-01 8.600584438118E-01 -4.487162861317E-01 -1.435325604747E+00 1.177719664337E+00 -2.207652226057E+00 -1.621793373415E-01 -2.167160918165E+00 -1.249131940357E+00 -1.285209032133E+00 -9.406649009819E+00 3.103469139393E+01
 -2.100812171833E+00 2.927032678509E+00 -3.169205234546E+00 2.881603260286E-02 3.137655132793E-01 4.517833774669E-01 -3.981939024308E-01 1.174650915924E+00 -4.683892223656E-01 -4.835855970069E+00 2.386342882661E+00 -4.079082207934E+00 1.710185985766E-01 1.640711836326E-01 4.058742751927E-01 4.406377964350E+00 6.175177098276E+00 -1.219280273927E+01 -1.772159491842E+00 9.762676666894E-01 1.353648340085E+00 -1.982714130753E-01 5.830974389279E-01 -4.758010195434E-01 3.475242808571E-01 5.194279335623E-01 2.330290760210E-01 -2.338125413127E+00 -3.306344111757E+00 -4.029217468728E+00 1.189462405028E+00 -1.591168333982E+00 2.914337212540E+01
 -6.528265630590E-01 -2.371873788564E+00 5.262703901108E-01 -6.228890251282E-01 -7.404370328931E-01 5.133273418004E+00 3.034408462047E-01 -4.210931838782E+00 -3.558739776154E+00 5.157818609433E-01 1.220351597793E+00 -3.024998101377E+00 4.982089716801E-01 1.787702620698E+00 -1.924105549953E+00 -6.812901540094E+00 -2.564094037300E-01 -9.864854254443E+00 1.977101959775E+00 -1.832948480848E-01 2.348582075647E+00 -1.820754056880E-01 7.616068265988E-01 7.752472346048E-01 -7.376733768422E+00 -1.277516200200E+01 6.090892038459E+00 1.184841544716E+00 -4.840302353793E+00 1.378184601677E+01 3.923899785258E-01 5.174100572110E-01 -2.326299253403E+00 5.211388303202E+01
 2.000409455295E+00 -1.031496905638E+00 -1.550561801656E+00 -3.481648144827E-02 2.260907862499E+00 2.715229872076E-01 4.079072238656E-01 -2.370351670651E+00 -2.045557657432E+00 -6.890194875045E-01 7.017493674424E-01 -7.100605646679E-02 -1.440119416436E+00 4.763231904387E-01 -1.482591443837E+00 -8.548537204224E+00 -6.062206945824E+00 -5.788631867477E+00 1.870982670090E+00 -4.183661172518E+00 -9.574552558203E-01 3.280952018875E+00 6.595519440488E-01 8.124231264301E-01 -1.368162699037E+01 -1.755830389424E+01 8.819942405228E+00 6.489344163457E-01 -1.299044911734E+00 2.301367112433E+00 -1.479517642886E+00 -3.985423880754E-01 -2.426159576358E+00 5.714063386585E+00 5.645938280251E+01
 -1.600968680477E-02 7.464498276150E-01 -2.423089634381E-01 9.667829860253E-01 -1.661815203549E-01 -3.249302718565E+00 -3.929650115168E+00 -1.819137528315E+00 -6.828848043631E+00 -1.337010219843E-01 -1.295920215510E+00 6.773974572568E-01 3.235977563986E-01 1.001457454123E-01 3.620386306998E+00 -3.772149843705E+00 -9.980498013348E+00 -2.213371471684E+00 -5.821711023664E-01 6.489759405139E-01 -2.794883165929E+00 2.263821029093E-01 -2.371246233680E+00 -1.401306989652E+00 4.370489652917E+00 7.219321438685E+00 -2.667956445434E+00 1.955437127034E+00 5.299862245979E+00 -1.368224346517E+01 -2.124443042078E+00 1.674728822487E+00 -8.428733413721E-01 -1.100413396947E+01 -9.235294945865E+00 4.375261913265E+01
 1.035608495957E+00 8.201130926611E-01 8.096901669399E-02 -9.693342495695E-02 -1.763458293883E+00 -2.003044115012E+00 3.052921886278E-02 2.812463567492E+00 -3.129613866625E-01 -2.273458150013E+00 7.120237850417E-02 -1.684285735342E-01 1.118944058339E+00 -1.520793959317E+00 1.490058433980E+00 -9.227797743267E-01 -1.210350493730E-01 -3.413356598964E-01 -5.504576124714E+00 -4.495171330710E+00 6.477868257829E+00 -1.124326812321E+01 2.897507220996E-01 -3.743955104560E+00 2.945075418915E+00 2.805776636817E+00 1.168587679705E+00 -5.007216278366E-01 5.219681045023E-02 -2.172861297146E-01 -7.501063969948E+00 7.043197747637E+00 7.346758504813E+00 -2.927008925819E+00 -2.024006975841E+00 2.338014030860E+00 2.993524853954E+01
 -3.456208983100E-01 -1.413110119098E+00 -1.394773328877E-02 -2.064067379071E-01 -1.924845768353E+00 1.968717294004E+00 1.226965154595E+00 -2.541894335387E+00 1.951953538828E+00 -3.362725689074E-01 3.933891184516E-01 6.880237545813E-01 -1.278619748834E-02 -7.493427729907E-01 -1.218983605589E+00 -2.312040869423E+00 -2.149140203369E+00 -2.249322562024E+00 -5.529822399167E+00 -7.018089806495E+00 2.497175624738E+00 -1.095394321356E+00 -2.747335463514E-01 1.739283067997E+00 6.918216136229E-01 1.653338369924E+00 -1.602530228486E+00 4.371825391778E-01 -1.061705695388E+00 5.383400971639E-01 6.272239654514E+00 -5.092849799332E+00 -6.020071596402E+00 1.603570408778E+00 1.626115496973E+00 -2.683834561801E+00 3.397011104220E+00 2.485101959519E+01
 -1.017558467468E+00 -3.284428039435E+00 -6.044688439211E-01 2.845495292873E-01 -6.592099466863E-01 -7.889220059314E-01 2.648059252535E-01 2.383071793391E-01 -1.040607384763E-01 1.839028409554E-01 -1.192118296850E+00 -7.438442123327E+00 2.522124318299E-01 -1.019505689807E+00 1.331915845468E+00 -1.916555952261E-02 1.114701178862E+00 -1.518703455902E+00 4.215706086387E+00 2.860236958758E+00 -4.174800258019E-01 -1.923630752752E+00 -3.802915224501E-01 -1.791679186436E+00 -1.755493765229E-01 1.447745824673E+00 -1.365305963639E+00 -8.058191373670E-02 -5.138082548203E-01 1.819682348431E+00 5.008613680305E+00 -3.736105310519E+00 -4.505669196131E+00 2.718418226805E+00 1.135849443397E-01 -1.172305854028E+00 -3.312946501465E+00 7.667371714165E+00 2.236725089724E+01
 -2.038602676663E-01 1.548043464315E+00 -3.623475149570E-01 -2.556115243562E-01 5.538296004167E-01 -1.403129534712E+00 -1.804694125391E+00 1.508007192950E+00 3.366883468470E-01 -4.643517335686E+00 -7.300421799839E+00 4.580615005233E+00 -5.279333404708E-01 -7.233627686398E-01 -3.746058513249E+00 2.673493498045E+00 -3.630503871960E+00 6.096088968205E+00 -1.202942617400E+00 2.245099220145E+00 1.496206459734E+00 -1.191504990219E+01 1.198384141611E+01 6.145566742525E+00 1.949202514463E+00 1.093898807121E+00 -7.119373799946E-01 -5.752284793220E+00 7.200054334379E+00 -2.368549059615E+00 -3.641427765088E+00 -1.728245660116E+00 1.284509752830E+00 -1.160988198872E+01 1.753025745823E+00 3.707464466691E+00 -1.533472121451E+00 -4.137337573147E+00 -5.936560489626E+00 4.171894389221E+01
 -1.408502856530E+00 2.209180493897E+00 8.384800429634E-01 1.459721001487E+00 -1.478498787026E+00 2.063974762050E-01 -2.267914770928E+00 2.542882020235E+00 -1.982967281960E-01 -5.514703954057E+00 -1.210442886147E+01 1.129673120231E+01 -5.044615776767E-01 3.480835912776E-02 -1.041783531542E+00 3.691639940043E+00 -2.218348492122E-01 1.847418652180E+00 1.386419409525E+00 2.859627026091E-02 3.766728105667E-01 8.193974746801E+00 -1.363119248876E+01 -6.762948964711E+00 -1.395665656094E+00 -9.949749743126E-01 7.228257024951E-01 2.549552751311E+00 -7.867795646157E-01 -7.739446723580E+00 -9.704646598172E-01 1.265007052053E+00 -1.224658582743E+00 -2.660329430315E+00 -1.726431113759E+01 1.634205991835E+01 -3.832951708951E+00 -7.263079283394E+00 -6.637707925350E+00 2.345084957359E+00 5.595500706191E+01
 -9.232304442568E-01 1.898935032448E-01 -4.677086318381E-01 6.157884042544E-01 -2.111930341161E+00 1.203190439350E-01 -9.567839773352E-02 2.488148521933E+00 1.888883267889E+00 5.691160119172E+00 1.139424104717E+01 -6.304715868172E+00 -5.679540855732E+00 -2.998306287729E+00 -1.960334202941E+01 -1.030107746091E+00 -2.564110865480E+00 2.292535898938E+00 4.079054055116E+00 3.890776232772E+00 -1.251452680767E+01 7.204597075902E+00 -4.630424552108E+00 -3.904005553506E+00 1.221318662892E+00 3.417653759399E+00 6.713662854310E-01 1.912818255809E+00 -4.612554688640E+00 -1.086603823924E-01 2.127125440903E+00 -8.481828855605E-02 -2.073811254667E+00 5.858720594787E-01 1.285573559713E+01 -4.821085788564E+00 -5.513135404332E+00 -5.014798577751E+00 -8.882226343490E+00 -9.948620724818E+00 -6.506555903564E+00 5.886725778266E+01
 -1.748458124419E+00 -1.528591003502E+00 -1.385391165537E+00 1.134024634903E+00 -1.166992152294E+00 1.719114015406E+00 -6.165777587244E+00 4.851752749132E+00 6.846420473153E+00 -8.299367750586E-01 -1.473459892650E+00 1.275002243740E+00 -9.487063095697E-02 7.220094181173E-01 -4.815628974331E-01 -4.873753284725E-01 -9.130307824569E-01 -2.726434168307E+00 -1.253238499407E+00 -1.112282563813E+00 -2.863408342176E+00 8.175081419279E-01 3.324768085341E-01 -1.096122632876E+00 -1.139390374396E+00 -3.152785263422E+00 2.753776910141E+00 1.943014285970E+00 -5.809567049755E-01 -8.771270468756E-01 2.515057010422E-01 -2.572495893237E+00 -6.024931690601E-01 -3.250911134889E-01 4.217691456981E+00 -2.737406651031E+00 -1.172736894493E-01 1.511960093204E+00 1.416231913188E+00 -1.168066065715E+01 -5.040792458252E+00 2.779787257826E+00 2.445915335985E+01
 -4.217067113220E-01 -6.609464367522E-01 1.232094181009E-01 5.509262750365E-01 5.734295376451E-01 2.794119772161E+00 5.010826720433E+00 -6.706020798488E+00 -9.237860049532E+00 -1.888529744929E+00 -1.343167328363E+00 -5.921578530986E-01 1.920719412479E+00 1.294903811807E+00 2.807283154370E+00 4.033026446281E-01 -5.269761757821E-01 -4.036142711084E-01 -6.189344238236E-02 1.727198178835E-01 -1.079975889386E+00 8.281387393132E-01 -1.413350123535E+00 -7.190313140023E-01 -5.472532819709E-01 -2.111085736995E+00 3.922020582802E-01 -7.412563209904E-01 1.452484125926E+00 8.757062734977E-01 1.308956600798E+00 -3.952248566599E-01 5.986728174883E-01 2.428444865014E+00 -7.638896609738E-01 4.494899716517E-01 -1.671208104042E+00 5.488500171059E-01 -1.167566575846E-01 -7.834990772140E+00 -3.374409356026E+00 -1.989570941200E+00 -1.949070435925E-01 1.453845959482E+01
 3.204525970080E-01 7.231644554381E-01 -2.946341686500E-02 -2.455032334885E+00 6.968494719254E-01 1.737903197117E-01 6.359985575644E+00 -6.334810649577E+00 -3.255269134659E+00 5.171154897811E-01 -9.407818407496E-01 1.030191064440E+00 -1.725682000438E+00 1.822060131565E+00 9.612474495196E-01 1.046279023259E+00 -2.370064357484E+00 8.514082751090E-01 -9.787761129402E-01 -3.567195193090E+00 -2.884082350304E+00 1.664905101619E+00 1.035907406958E-01 -1.196060308091E-01 9.905736927223E-01 2.403374975740E+00 -1.045812305443E+00 2.331295520645E-01 1.214001851166E+00 -4.575676387011E-01 -1.660520759222E+00 6.652284149104E-01 2.652524508438E-01 -3.398333706529E+00 -5.197039187936E-01 3.376780833685E+00 -1.814262140135E+00 3.707536276944E-01 -1.438978644104E+00 1.189013162865E+00 3.296987243436E+00 -3.151079912094E+00 -3.622005099639E+00 -7.911321232770E-01 2.434981746634E+01
 1.198592588269E+00 1.409736521505E+00 8.092434451395E-01 -1.686203210096E+01 2.114942256356E-01 -5.587601378196E+00 7.969891705330E-01 -3.241642745306E-01 3.802430098661E-01 -8.071778567131E-01 6.269237615872E-01 4.763718600289E-01 -2.067748449518E-01 7.615482825973E-01 1.071605828333E+00 4.627513484703E-01 -5.664279918944E-01 1.533746946164E-01 -5.290342389871E+00 -7.189637763108E+00 1.491177140258E+00 -6.592528215920E-02 -2.324289788490E-01 -5.705576503548E-01 -4.751796937808E+00 4.738461268351E+00 1.761272531165E+00 -7.649880854771E-01 7.174598694096E-01 -3.820609949110E-01 2.777444348176E-01 2.012587285558E-01 -2.899709446947E-01 -1.066586130895E+00 2.913223514702E-01 -1.822950746005E+00 8.121570710985E-01 -1.032084855329E+00 -1.960396640692E-01 3.103462650827E+00 4.138980880413E-01 -2.494809081657E+00 -1.106811832202E+00 -8.177088102909E-01 2.452731170596E+00 2.491606518374E+01
 -3.012077927077E-01 1.043252950800E+00 2.418335919907E-01 1.155842485114E+00 -9.254263647961E-01 -1.672964086147E+00 -1.077822681644E+00 2.758872324898E+00 5.952410399758E-01 5.828022840578E-01 1.819973235874E-01 2.305192243090E+00 -3.663825886072E-01 -1.236892331489E+00 2.346430118604E+00 -6.772010026703E-01 -8.096815461060E-01 1.683637857827E-01 -9.505871290815E+00 -1.304888287636E+01 1.588053416767E+00 1.704901566335E+00 -4.574250815446E-02 -1.763218601549E+00 7.756909455692E+00 -5.038459989338E+00 -6.870722070742E-01 -4.978474779515E-01 6.913201341667E-01 -1.484387658667E+00 1.427061321986E+00 6.795481834871E-01 -4.943776053284E-01 -8.764064445952E-01 -1.915140188851E+00 1.404026043010E+00 -6.445675451913E-01 4.432972557050E-01 -3.939701548322E-01 -3.314152549330E-01 4.186739002671E-02 -1.860219508149E+00 2.476024168153E-01 -1.351852396520E+00 5.618605482405E+00 1.965889191121E+00 2.014139269216E+01
 -1.471307447744E-01 -7.410146797382E-01 -5.584303714227E-02 -4.743882505317E+00 1.164034402094E-01 -1.095135605190E+00 -1.415990998959E-01 -1.079377844729E+00 -9.735377927920E-01 8.152112341239E-01 1.154590037996E+00 -1.349728812339E+00 1.003619236589E-01 2.578211675802E-01 -1.143001181983E+00 -3.770619539908E-01 1.799961900248E+00 2.156063825678E-01 1.485614567104E+00 3.378024264327E+00 -5.190624196242E-01 -7.838452716982E-01 9.881997879643E-01 8.828671865986E-01 2.136236269027E+00 -4.291879200506E+00 -1.814973124780E+00 1.236572456289E-01 -2.650744363619E-01 8.189236035377E-01 1.017969637906E+00 -1.814643100849E+00 8.671257644077E-01 5.775045089804E-01 -1.394910250100E+00 -1.797297344568E+00 -4.588870977569E-01 -1.030155210910E-01 1.313267374332E+00 -1.380328204430E-01 -2.082957316183E+00 -5.762947837869E-01 -1.787887729774E+00 6.180123488892E+00 -1.672198562850E+01 2.796143925888E+00 -4.821919695153E+00 2.052460650192E+01
 -1.093613510463E+00 2.157389757609E+00 -7.333548293148E-01 -3.831861673229E+00 1.332408677905E+00 8.820487344653E-01 -7.070209503980E-01 -1.021509228809E+00 -8.362536817128E-01 2.857454869209E-01 1.858029100264E+00 -1.935365635722E+00 -1.213703594794E+00 4.644450475121E-01 9.922473991334E-03 1.992784075244E+00 1.439910999255E+00 1.193749787738E+00 -8.056886227820E-01 1.239137324017E+00 -3.914651279981E-01 2.227009969706E+00 -5.077369842782E-01 -5.162106953930E-01 -5.840167289453E+00 1.240906046337E-01 1.893039768229E-01 1.040963916077E+00 1.411056176037E+00 2.033799641133E-01 2.183955093846E+00 -1.822513344694E+00 1.422523647097E+00 -4.822233654627E+00 3.943818378181E+00 -3.660862527647E+00 -2.553867115528E+00 4.940246819393E-01 -6.982218615892E-01 -1.313783385853E+00 -3.200837606047E+00 1.791507171438E+00 -1.460212807171E+00 2.130492105285E+00 2.029711464603E-02 -1.325060973899E+00 -1.630865596362E+00 5.428947890325E-01 1.926672830136E+01
 5.091202888264E-01 5.732400538909E-01 7.638543340659E-01 1.357949005887E-02 -6.482091338721E-01 8.875721241774E-01 -1.079663291724E-01 -7.076896006529E-01 1.211177771541E+00 4.167995141026E-02 1.060108322455E+00 -5.595109076180E-01 -8.114877608137E-01 9.034631465679E-01 1.288193830875E+00 2.256261259915E+00 -1.403463195064E+01 -6.895268201969E-01 -1.983893310492E-01 1.121242078263E-01 -2.149488959475E-01 4.365283665072E-01 1.564312967464E-01 3.090780439981E-01 -1.910303812382E+00 -1.769999396327E-01 -8.071098820269E-01 2.133177966079E-01 3.010653302538E-01 -7.438557099972E-01 9.190165710273E-01 -2.467732179602E-01 1.572053109297E-01 2.691470479352E+00 -2.302438995724E+00 6.577080175710E+00 -1.762747167570E-01 -4.740380879457E-01 -4.524703750328E-01 -9.975366043147E-01 8.949189425740E-01 -1.530876758988E+00 2.019778475866E+00 -1.487096235848E+00 -1.513238119256E-01 1.109843370501E+00 1.848904337475E-01 -6.322261847542E-01 -4.111902631420E+00 2.427705411545E+01
 -2.977304130257E-01 -2.076022411375E+00 -2.360927372929E+00 1.290241867832E+00 3.686877791533E-01 -2.108770698264E+00 -5.263157902394E-02 -7.244242667261E-01 -4.493855695066E-01 7.736429232178E-01 -6.989911119266E-01 1.731278136607E+00 1.133855013796E+00 7.217867372354E-01 1.188303519897E+00 -2.140973696986E-01 -1.719791715557E+00 -5.469525272110E-02 2.471330962638E+00 5.977002899893E-01 5.448534743603E-01 1.474308180993E-01 5.420142064174E-01 -9.853916223080E-01 -2.739763643410E+00 -1.287277122148E+00 -1.763647103227E+00 -1.049933341550E+00 1.790437680334E+00 -3.134999173998E+00 2.455997896784E-02 -3.831342792262E-01 -2.248665962411E+00 -1.062090004397E+01 3.512899278678E+00 7.576897893692E-03 -1.927590721917E+00 2.098158295540E-01 5.148084702119E-01 1.710570190361E+00 1.916138590661E+00 -1.274886962392E+00 -6.773368077164E-01 -4.206324488428E-01 -6.047034722935E-01 4.541393910284E-02 -2.043459522472E+00 1.003057355488E+00 2.492582497219E+00 -8.620510151008E+00 3.423847714441E+01
 -5.336042807011E+00 -4.633046725646E+00 -7.637819944868E+00 5.846671447975E-01 3.851743118892E-01 -3.142291250951E-01 3.812059342109E+00 8.065483852614E-01 2.480110626093E-01 5.374222318467E-01 -3.062706269018E-01 1.267059685135E+00 2.071570633301E-01 7.581269683840E-02 -1.434959262630E+00 -1.479473410338E+00 5.538366582053E-01 2.039018077180E+00 8.305122447078E-01 -1.208299232276E+00 1.254865545274E+00 3.724112980034E-01 -3.652630042876E-02 -6.536976079121E-01 -1.626464527364E+00 -4.664046913324E-01 2.983156588573E-01 -7.908538191013E+00 1.954282581373E+00 -7.659723795161E+00 -1.689743676439E-01 2.297089497604E+00 -2.542185134852E+00 -5.248566690605E+00 1.746576874744E+00 3.124260508803E+00 -1.165602606027E+00 1.196737881452E+00 6.740307426393E-01 -7.403555533285E-01 1.118293330184E+00 -6.560610972178E-01 3.014906241144E-01 -3.396040816273E-01 1.381564460132E+00 -7.846147003061E-01 -1.031405818754E+00 -8.441023144105E-01 -1.146045260860E+00 -3.002053850089E+00 6.513526517668E+00 2.809599062614E+01
 -2.653137095178E+00 -5.013781081441E+00 -5.509994330732E+00 9.714795980210E-01 1.224610287096E+00 -1.811279170528E+00 1.289508680619E+00 -6.166975300465E-01 -4.200407727243E-01 6.030899031495E-01 2.090631300071E+00 -2.162382564345E-01 1.712100916673E+00 -1.310152099797E+00 -2.374937498114E-02 -1.027753489277E+00 -2.710689238295E+00 -2.281371791509E+00 2.260832662617E+00 -1.791843741471E+00 2.326132619195E+00 -2.064468724926E+00 1.722628525771E+00 -1.587433236666E+00 1.166317174425E+00 3.992437909851E-01 3.286213601237E-01 4.665291141206E-01 -2.058319151562E+00 -4.672554221945E-01 4.493929424796E+00 -1.785197931197E+01 3.410176455964E-01 -8.749895031546E-01 8.045327968139E-01 5.184451770860E-01 -3.074356732710E-01 -1.161192507402E-01 2.344088354880E+00 5.892502794057E-01 -6.503996361226E-01 -4.256072243945E-01 2.319512300292E+00 7.426856184961E-02 -5.957519721461E-01 -2.457748260817E+00 -1.344294263832E+00 1.966775434795E+00 -4.692309270701E+00 -4.777623213082E+00 1.030581740006E+01 7.913228484512E+00 4.189298357275E+01
 -7.166331008243E+00 -5.966529263347E+00 -1.096212987229E+01 6.366175688229E-01 -7.341483627011E-01 6.418783849616E-01 1.936042317122E+00 2.587089953194E-01 9.577521252864E-01 -1.383007833587E+00 -5.745508997786E-01 7.812698874347E-01 -1.530968719320E+00 7.030328075129E-01 -2.478641894726E+00 1.514009319406E+00 1.138568328453E+00 -1.856019284345E+00 -9.085253864451E-01 -2.017376474511E+00 3.622291021154E-01 3.700457889487E-01 1.272203149741E+00 5.924542911580E-01 -1.621597612528E+00 9.980759645606E-01 7.725239035612E-01 -6.026711068319E+00 2.426425511788E+00 -5.356036511973E+00 -1.328666090267E+00 -2.181557323419E-02 1.243293908890E+00 6.254364108613E+00 1.804806879215E+00 -2.522380171526E+00 1.411234492530E-01 9.338601810628E-01 -5.708101765870E-01 -2.441957121346E+00 -2.756964543518E+00 2.008519224204E-01 3.115724686194E+00 6.553156627874E-01 -2.413908180521E-01 -3.601646684497E-01 4.057127365251E-01 -7.546511465419E-01 4.455740059893E+00 6.889427473367E+00 -1.599489461347E+01 8.742916876763E+00 -3.565132562704E+00 3.602076196105E+01