#BIOSYM hessian 1
@Type: Hessian Update
@Units
 distance: 	A
 energy: 	Kcal/Mol
#header
@natom 19

#label
L1      L2      L3      L4      L5      L6      L7      L8      L9      L10     L11     L12     L13     L14     L15     L16     L17     L18     L19

#element
Li Li Li Li Li Li Li Li Li Li Li Li Li Li Li Li Li Li Li

#matrix
57
 1.046713331586E+01
 2.775728008878E+00 2.450788086566E+01
 -5.256286264248E-01 6.478206862252E+00 1.840533525519E+01
 7.310611838780E-02 1.872815495652E-01 -8.485885352188E-01 1.805919861177E+01
 -2.074508260239E-02 9.592250126059E-01 -5.035733649949E-01 5.023077812929E+00 2.664488571811E+01
 2.059741509860E-01 3.797522750353E-01 3.368303339833E-02 -6.564356343314E+00 5.989746582017E-01 9.162304602512E+00
 -2.991650378579E-01 -1.772244776957E+00 9.405738009594E-01 7.050701482199E-01 1.571907850496E-01 -1.692654432426E+00 1.952008006601E+01
 2.296696342930E-01 7.559850354794E-01 -1.407201861599E+00 -2.089371551321E-02 1.481314428013E+00 -7.605911165959E-02 -4.301253350124E+00 2.087730275089E+01
 1.560619029134E+00 -5.758727892882E-02 -1.494741517204E+00 -9.957238269590E-01 4.268349427496E-01 1.133376211908E+00 -2.515437074310E+00 4.662319254492E+00 2.799735899852E+01
 9.075600610552E-03 1.100729027875E+00 6.256064048327E-01 -1.200597015125E-01 -1.175250900277E+00 5.112453802896E-01 -2.167760176521E-02 5.613464757071E-01 2.735985865419E-01 1.108695962791E+01
 3.231647641705E-01 -6.622967216036E-01 -7.642844179239E-01 2.467648031719E-01 4.660791282737E-01 3.336807316258E-01 -2.668822812675E-02 -1.744784272631E+00 -1.733604430575E+00 -3.303440887236E+00 2.319947211106E+01
 2.196897603017E-01 1.282300266144E+00 1.010448410351E+00 -1.025309095288E+00 -2.407645754631E+00 -2.285135399675E-03 6.871831728999E-01 -5.796117393866E-01 -4.332696392317E-01 1.555994347806E+00 -3.362586038904E+00 3.185704315719E+01
 -2.359784612554E+00 -6.451046794379E-02 -2.201316440771E-01 1.830967995723E-01 9.548482752797E-01 -1.361780257208E+00 -1.824599040521E+00 -1.424753431751E-01 -1.723659766770E+00 -7.938165443434E-01 7.773048672459E-01 2.418082656957E-01 3.075147711451E+01
 7.238327965386E+00 -1.144718186063E+01 -1.542267160437E+00 -1.004028018172E+00 -3.865882012036E+00 3.545607460172E-01 6.131072596507E-01 -1.078578604718E+00 9.410483030941E-01 -1.724466807763E+00 -1.245319891957E+01 6.184231831076E+00 -3.252122404710E+00 4.335111281855E+01
 3.497894947269E+00 -4.837838579356E+00 -3.353397666747E+00 2.352113583262E+00 5.315957183175E-01 2.227169696251E+00 -2.045744648342E-01 -8.366793694086E-01 -3.775832808457E-01 1.166760681141E+00 8.025105965672E+00 -3.307978939854E+00 -1.181156282074E+01 -3.965272810594E+00 3.247978166371E+01
 1.498171266935E+00 2.373227255609E+00 -1.682057275935E+00 4.218378692923E-02 1.282681065439E+00 2.307945958064E-01 -7.132739218333E+00 2.660601331318E+00 -3.670321965999E-01 -2.936084893595E-02 -4.211073419583E-01 2.011711335108E-01 -4.589664211597E-01 -1.148035157214E+00 -6.691226878016E-01 2.111706215730E+01
 1.625630991498E+00 4.832842621752E-01 -3.056076362970E-01 6.492955086907E-01 3.129840914625E+00 1.335206876842E+00 1.154419313552E+00 -1.273077319660E+00 2.141904176728E+00 -7.008132926436E-01 7.531407902154E-01 -2.489537922782E+00 1.232062069661E+00 -1.786773915573E+00 -1.568564558805E-01 -1.807350066372E+00 1.984225723842E+01
 9.286701430033E-01 1.761251910310E+00 4.744083838668E-01 1.999191172652E-01 9.928115711667E-01 3.232232551894E-01 -3.085103797761E+00 1.606619068184E+00 -2.633731514636E+00 -7.645567930548E-01 9.547883380803E-01 -3.165872237378E+00 2.986579373634E+00 -2.082305942047E+00 3.201288063155E-01 -3.205675996548E+00 3.605191571649E+00 2.527238881513E+01
 4.537010104900E-01 -1.057922694619E+00 -6.020540466501E-02 -3.836580276665E+00 -2.211164336266E+00 2.607345048348E-01 -6.821935633930E+00 9.490316243904E-01 4.225974628272E+00 8.845513635767E-01 3.888004388142E-01 -1.234314019272E+00 -1.034037705341E+00 7.109862185291E-01 9.098055036480E-01 -1.145479167854E+00 1.609522402657E+00 -5.428174817912E-01 2.744928792793E+01
 -1.717164990883E+00 1.751210120632E+00 1.638043277880E+00 -1.167217522178E+00 -1.504304331875E+01 5.540789572278E+00 2.467316000334E+00 -1.532729982720E+00 6.610786096584E-01 1.303909681549E+00 -2.263423222744E-02 -1.052844583163E+00 1.612343907045E-01 1.129355891295E+00 -9.345513185680E-01 -7.608141328775E-01 -1.356375928118E+00 -2.475850691883E-01 8.376411107707E+00 3.375591768135E+01
 -4.475421109755E-01 -1.427242195096E-01 1.533000662337E-01 9.047780272049E-01 2.469869656018E+00 -3.492787108385E+00 7.594886017480E+00 -1.552633896492E+00 -1.009742216802E+01 -1.326894456979E+00 1.469730599323E+00 8.950383299440E-01 3.366117126530E+00 -8.055632470841E-01 -2.502573451109E+00 9.968505396627E-02 -4.462717128487E-01 -4.498049009685E-01 -9.803520675395E+00 -7.325273684491E+00 3.407888059076E+01
 -3.913412589471E-01 6.183353612558E-01 6.858855032203E-01 -1.146472396065E+01 -2.352571344467E+00 6.438908816955E+00 3.539650518927E-01 1.518633708987E+00 -3.243805584323E-01 6.515147770577E-01 1.143721427407E+00 5.645970457277E-01 1.298376816504E-01 -7.519083900867E-01 1.308807709080E+00 -7.198015292945E+00 -5.032997755977E+00 3.720320884127E+00 -3.146110063769E+00 -7.224580231823E-01 -3.311046510098E-01 2.689334674032E+01
 1.880448937217E+00 -2.074527009427E+00 9.327809966431E-01 -2.921433120708E+00 -8.798991562495E-01 -1.284869094007E-01 1.941235860978E+00 -3.900509099923E+00 2.462917104218E+00 3.278582935586E+00 1.284232429008E+00 1.219893848128E+00 -2.288473824063E+00 1.876671559640E+00 -3.534953334842E-01 -2.052174254703E+00 -9.837898787529E-01 6.123237787127E-01 -7.847217777496E-01 -4.418613963484E-01 4.457567763695E-01 9.002954411971E+00 2.131315961364E+01
 1.181569299200E+00 1.046049165081E-01 5.586464249138E-01 5.955370638893E+00 1.505995134109E+00 -2.878007343308E+00 -1.187717094222E+00 5.797392046489E+00 -4.464952044198E+00 1.413152481626E+00 3.681147771741E-01 2.425460236395E-01 1.767180708490E+00 -1.268896175556E+00 -1.568184362097E+00 3.467497161260E+00 2.539023070578E+00 -4.446960078106E-01 -1.408284580369E+00 -1.739896151903E+00 4.383026041814E-01 -2.805481462592E+00 -4.346053674183E+00 3.361003924691E+01
 1.308313436320E+00 1.680401624616E+00 1.825153355982E+00 -3.518103700571E+00 -3.165086496096E+00 3.252102019751E-01 -1.600411144453E+00 6.499621728854E-01 2.360123283920E+00 -4.415710574479E+00 2.621118274293E+00 -4.230210539097E+00 -1.696586854118E+00 -1.904224122367E+00 5.511609784770E-01 2.793379675892E+00 2.455125352016E+00 1.746524925341E+00 -4.942145823111E+00 1.832764337866E+00 -3.406517116208E+00 3.225996125411E+00 2.998283100571E-01 -1.185948713821E+00 2.063224921036E+01
 -9.576652749166E-01 -7.831938860431E-01 5.593745858708E-01 -4.700960498218E+00 -4.987609338737E+00 -5.127087083129E+00 1.733343664880E+00 -2.402886805078E+00 -2.755334415516E+00 -4.682499675836E-01 3.116011301139E-01 1.507501415949E+00 -1.523761761587E+00 -3.142559193617E+00 -3.423312636955E+00 1.036675978262E+00 -2.962824851821E+00 2.463543527703E+00 2.991068875295E+00 -5.334847704730E+00 1.023359771149E+01 -2.718347372235E+00 4.432784612374E+00 1.481223016698E+00 8.265187880790E-01 3.948068812739E+01
 -5.764002894925E-01 -6.076335614912E+00 -3.883364629534E+00 -1.727309940712E-01 -4.478768448065E+00 2.658765903371E+00 3.436044465553E-01 1.255758413662E+00 7.015375010488E-01 -3.488419679449E+00 4.284977775129E+00 -1.797890725799E+01 -7.812974478182E+00 1.436107956927E+00 3.468135453464E+00 -2.497904944511E+00 -5.515062310609E-01 -9.228994300002E-01 4.581886584292E+00 7.935551985584E+00 -1.006878583621E+01 -2.015888440263E+00 -1.091352236707E+00 -8.850280497894E+00 5.606418338668E+00 -8.987811962980E+00 6.132715591061E+01
 -1.020130847777E+00 -1.688515377654E-01 1.535309382396E+00 4.376271484169E+00 5.038289262238E-01 1.793640989852E+00 1.779247365454E+00 6.649775318745E-01 -3.759332709474E+00 -1.515565628405E+00 1.631681166377E+00 -2.772522373739E+00 9.962576959165E-01 1.077269628143E+00 1.283788872882E+00 -4.108378790165E+00 3.320033762146E+00 3.703390267370E+00 -9.786242006811E+00 -1.889648982087E-01 -1.351472756035E+00 1.599176603797E+00 -6.470149134810E+00 -1.007780930772E-01 2.410703273077E+00 -7.473611526274E+00 7.307285374347E+00 1.741163742976E+01
 -5.332463719490E-01 -6.368648737561E-01 -2.466242764134E+00 2.595790098526E-01 2.114516090444E-01 -7.360717095159E-01 -1.844062906759E+00 9.916596730584E-01 -2.487463895724E+00 -2.917713495140E+00 -1.103502007324E+00 1.391865623526E+00 3.110724545277E+00 2.167107692020E+00 1.773493533004E+00 3.405961838053E+00 -1.379872508968E+00 -4.905081804105E+00 -2.573211791406E+00 -8.795500741789E-01 -1.466417984742E+00 -1.841488634559E+00 -4.109787339130E+00 -3.323984917177E+00 2.705089801683E+00 -2.446221500868E+00 2.726005937074E+00 2.892098018791E+00 9.306715156056E+00
 3.107822207794E-01 2.097159213880E+00 -2.872149701914E-01 1.127580533265E+00 -1.590754524036E-01 -9.459777041789E-01 1.242729985641E-02 -8.636437884665E-01 -6.393949820235E+00 1.415800715073E+00 1.712439411889E+00 3.321917869448E+00 -5.470651337806E-02 2.298785970378E-01 -3.346296565852E+00 7.158380359840E-01 -1.284616854319E+00 2.255949405763E+00 1.185469971278E+00 1.602747544031E+00 4.348115835474E+00 -1.667982844830E+00 -2.584291309511E-01 9.920854468633E-01 1.062078582008E+00 4.697880835534E+00 -6.587940659746E+00 -9.397820797432E-01 -2.639514769450E+00 1.109050754333E+01
 8.734536785062E-01 2.056528693393E+00 -1.109004084711E+00 -1.038207634692E+00 3.603330065896E+00 -9.434355494799E-01 1.017802152631E+00 2.478028227660E-01 -4.607713090308E-01 -2.130183257856E+00 -1.964209537238E+00 -5.111221325625E+00 2.783575250653E-01 -2.328558187334E+00 -1.858571766593E+00 -2.183049395639E-01 -9.842736173642E-01 -1.865900634106E+00 2.208580651387E+00 -1.271004958130E+00 -1.082031891887E+00 -1.325931873311E+00 2.410912834990E+00 -1.870421752844E+00 1.352413112909E-02 1.563743318368E+00 2.079275438569E+00 -3.517699816606E+00 -1.931377501782E-01 5.035492361815E-01 8.549132918203E+00
 8.825881102297E-01 1.752203904793E+00 -1.353296855040E+00 8.498908996994E-01 1.765550513575E-01 1.222436184247E+00 2.506226961485E-01 9.603909559615E-01 7.497861997778E-01 -1.163397554454E+00 -5.313173803792E+00 -3.024346980525E+00 -5.971882519190E-01 -1.557058540387E-02 9.765067676968E-01 1.790480480444E-01 -8.360483803652E-01 -1.152138211144E+00 1.878461159454E+00 1.442044262819E+00 -2.010194590317E+00 3.848024884976E-01 -3.916522994276E+00 1.665594230098E+00 -5.118740581817E+00 -1.407060746860E+01 3.134242382905E+00 -3.431937150056E-01 9.317442001912E-01 -2.104508796470E+00 2.296802628496E+00 2.326129461090E+01
 -1.339669222154E+00 -2.677273809250E-01 1.614522536969E+00 6.531097092570E-01 1.262253861287E+00 -1.351824677156E+00 5.607657705792E-01 1.197485682239E+00 2.794606205961E-02 -3.443172194515E+00 -4.551618037231E+00 -2.544128719767E+00 1.094845693954E+00 1.133579456247E-01 -1.904561984191E+00 1.390141988949E-01 4.555605507809E-01 1.991742507447E+00 1.322679011206E-01 -1.328081807537E+00 -5.345325516897E-01 -2.320349523298E+00 5.212942701344E+00 -1.012791300804E+01 1.686242618845E+00 6.629211578739E-01 -2.297881936709E+00 -2.483061318826E+00 2.044625620206E-01 -1.980210538571E-01 5.110052242442E+00 -2.613271138060E+00 1.610298011706E+01
 -2.682436861165E+00 -3.086475859572E+00 1.040294468082E-01 -2.516826694344E+00 -2.952019240993E+00 -1.914151316612E+00 -4.877074084277E-01 -8.119715989219E-01 -1.545252626680E-01 -1.755205940925E-02 -3.629998038594E+00 7.233326096820E+00 -1.501312020106E+00 4.196873491431E+00 -1.536103794343E+00 -7.002693985397E-02 -7.854418885104E-01 -7.593504054620E-01 -2.339668204098E-01 -1.004023372694E-01 -8.889025106983E-02 -8.266100572162E+00 -3.824880735251E+00 -5.170803072903E+00 -1.409669690532E+00 4.081116999834E+00 -2.458272261812E+00 7.084542321495E-01 4.076218454895E+00 6.107147630185E-01 -1.865890954935E+00 1.293597320286E+00 -1.673023427044E-01 1.947710672923E+01
 -2.644251681911E+00 -3.154688783037E+00 5.726221074200E-01 1.223628663503E+00 2.413027696488E+00 1.205875694510E+00 3.836449834685E-01 1.573498972697E+00 2.112960441021E+00 3.801233653077E-01 -5.003783050889E-02 -3.509838926636E-02 2.294462939460E+00 -6.156395826452E+00 -5.208887724699E+00 2.889025860539E-01 2.405964626471E+00 1.396600041148E+00 1.104593235389E+00 1.809317297638E+00 1.598670654377E+00 -1.104233246687E+00 -4.369399187189E+00 9.867035878770E-01 -3.134575917373E+00 -5.378352848250E+00 -3.691824472295E+00 4.217289844340E+00 -2.403788560320E+00 1.837076096797E+00 -1.161175819942E+00 -2.008242622391E+00 7.841501043426E-01 3.513236978853E+00 2.336194746569E+01
 3.352524197884E-01 1.615647780285E+00 -4.494717269754E-01 1.186635997866E+00 2.717875030994E+00 3.424015692024E-01 -1.580530907775E+00 6.768195479011E-01 1.558098790289E+00 3.900697463410E+00 -1.021401033216E+00 -1.581034436855E+01 6.211812579662E-01 -3.134976622927E+00 -3.287634888082E+00 2.216820200085E+00 1.278238781037E+00 -1.214163979228E+01 9.958909609510E-01 -2.079643877450E-01 -8.065550911715E-01 -4.163171979027E+00 -4.436180513551E-01 -3.122549139221E+00 -5.541371960149E-01 -8.292663643395E-01 2.179011037495E+00 -2.328583039328E+00 1.369658490062E+00 -3.106025470730E+00 6.068838705132E-01 -1.217612536557E-02 -8.633082129377E-01 -2.390710533191E+00 -1.854013734982E+00 3.596262359891E+01
 -7.920750443727E-01 2.803905498515E+00 4.357054267272E+00 -9.169180911192E-01 1.041247844073E+00 -6.918662549188E-03 -8.580979682343E-01 -7.754681405746E-02 -5.215128488254E-01 8.193106026099E-02 -7.272839642262E-02 -3.472977540167E+00 7.354615327674E-01 -3.616102740853E+00 -8.445934407615E-02 4.245562374186E-01 -1.358420856931E+00 -1.021810548256E+00 4.821835026902E-01 -2.286535377872E-01 -6.389037121575E-01 -7.441826889454E-01 1.098374470104E+00 3.156005236117E+00 -4.468206869736E+00 -3.018014359205E+00 2.336520506304E+00 1.115561949204E+00 6.904999701072E-01 -2.458978699999E+00 7.419704756285E-01 2.328162966855E+00 4.749704342849E-01 1.950978719712E+00 1.473896643660E+00 3.369516284328E-01 1.411780476014E+01
 2.166299832024E+00 2.243945072857E+00 9.758917177027E-01 4.335509897966E-01 -5.712742384578E-01 8.200297209459E-01 3.507387543566E-01 -2.340052365165E-01 -1.440700474616E-01 -9.871229267031E-01 -5.830331515693E-02 -1.302104480910E+00 -7.623128871224E-01 -7.655760407789E+00 7.602405190029E+00 -9.178934394713E-01 2.162439619586E+00 -8.684340225763E-02 -5.767966074443E-01 -9.052713850382E-01 -1.221341284746E+00 -1.030506397950E+00 -3.141106844028E+00 -6.576363790639E-01 -1.553952863659E+00 3.272828559187E-01 6.856482137865E+00 -6.345866612472E-01 -5.870598572261E-01 -7.378430190764E+00 6.562201733222E-01 -5.112007535122E-02 -1.555656191561E+00 -1.742430236056E+00 -1.339466804484E+00 8.538116794289E-02 -1.076101955136E-01 2.277926908233E+01
 2.301873780719E+00 -1.177908852582E+00 -1.123511010729E+01 -4.768540059911E-01 9.144884509921E-01 -2.618589184336E-01 -7.391105105732E-01 7.558097658294E-01 2.618340037269E-01 9.134432492510E-01 -9.802853593644E-01 -1.955444118234E+00 -1.889771886873E+00 5.871688639185E+00 -4.971314300311E+00 8.402221883858E-01 -1.088664646720E+00 -1.236934385938E-03 1.627168736112E-01 -1.242195579223E+00 -1.149892205701E-01 5.382954164039E-01 8.987852584688E-03 -1.152963371473E+00 -1.022593099895E-01 -5.213877803137E-01 -1.623604247971E+00 -1.474687248516E+00 -1.994761961547E+00 4.277320685728E+00 1.225646110650E+00 1.162776335866E-02 4.147441270312E-01 -5.191206237633E-01 -5.471722087796E-02 2.100055913733E-01 -1.243194814864E+00 2.066988417605E+00 2.730132281463E+01
 -3.180163651367E+00 -2.981439147347E+00 9.226636379430E-01 -2.304360375662E-01 -1.396809161457E+00 -1.359999842009E-01 3.155485508742E-01 3.700761965388E-01 5.722914577963E-01 -3.397596576113E+00 4.007774466161E+00 2.516934628411E+00 -9.383070537030E+00 -1.924631657526E+00 6.082298955590E+00 -1.432537454842E-01 -3.063158369023E+00 -2.808963007681E-01 -7.989145537299E-02 -1.886535606932E-02 -2.014892968672E+00 -6.621614684231E-02 -2.362667367509E-02 2.616184085100E-01 1.906042713426E+00 1.084827580189E+00 -2.131451779316E+00 -1.226654688029E+00 -1.559551959271E+00 -4.052269700576E-02 -1.604228984355E+00 3.960762088835E-01 1.824955596601E-01 1.809046431733E+00 -1.788365638394E+00 -7.580754153951E-01 4.601888516645E-01 1.390011495761E+00 -1.788913294267E+00 2.179639185300E+01
 -3.471774155015E+00 -7.487985873696E+00 3.266212376344E+00 -6.915608083050E-01 -6.652127452620E-01 -1.893103421140E+00 5.816181360963E-01 -1.502111993850E+00 -1.770101595281E-01 4.618136108177E+00 -6.854906683824E+00 1.522525612056E+00 3.273857553866E-01 -9.251846256537E-02 -1.332478358351E+00 -1.589130916549E+00 -1.886832245212E+00 -1.287974540361E+00 -2.036150145062E+00 -1.819651791657E+00 1.063388588152E+00 5.085077608298E-01 -2.508426228940E+00 -1.539660450141E+00 7.823279429543E-01 -8.931244790974E-01 -9.632530423033E+00 -3.596077518836E-01 9.614637035343E-01 -1.287480374240E+00 -2.212802433461E+00 1.581443172362E-01 5.766434739406E-01 3.774890600485E+00 2.324906752005E+00 -2.033106866072E+00 3.512887113249E-01 8.131351847913E-01 1.025979325931E+00 1.220933121421E+00 2.452481297240E+01
 -3.232572351128E-03 1.801983387238E+00 1.389100464018E+00 1.187296777441E+00 -3.613137988590E-01 9.004673320164E-01 -7.742392724681E-01 1.661907166445E+00 4.650770120558E-01 -1.442857205312E+00 -2.823197405195E-01 1.897284447608E+00 7.721854627620E+00 -2.080929814193E+00 -8.179731295582E+00 9.304810204542E-01 1.165878317821E+00 -8.376592834870E-01 -1.880898276921E+00 2.746021711571E-01 2.910667300702E-01 2.161049389864E+00 -3.268248066149E+00 -6.501766702220E-01 1.679782718869E-01 -2.594556646365E+00 -1.048649347209E+01 1.303865417976E+00 2.193717013555E+00 1.439445078524E+00 -4.985940480346E-01 1.147017677681E+00 -4.156646174466E-01 -8.150850983386E-01 1.867933777466E+00 1.066620221205E+00 -1.253309521866E+00 -3.618211309860E+00 1.761241222961E-01 -1.757342187337E+00 -5.993126737670E-01 3.176638281035E+01
 5.961750257568E-01 2.449702978887E-01 -1.152112536923E+00 2.463220319628E+00 4.291537346691E+00 -2.923454824325E-01 1.871305827605E+00 -1.885302201903E+00 -1.076757487437E+00 -1.372140830819E-02 4.270792449808E-01 -8.390855625005E-02 2.127907778172E+00 -7.539574824664E-01 -1.652822017692E+00 -1.378038337292E+00 -1.196567283175E+00 1.745118449429E+00 -3.299010195133E+00 -1.910046954064E+00 9.957426440947E+00 -6.191424178075E-01 5.544645965444E-02 3.133181403214E-02 -1.117409809375E+01 1.003301546553E+01 -5.261542786758E+00 7.187896676284E-02 -2.515208316776E+00 1.315047113071E+00 -1.095685482990E+00 -1.027762670986E+00 -7.183595279306E-01 2.790149197347E-01 2.844682372942E+00 4.076764912399E-01 -2.827947427590E-01 1.012018539712E+00 9.794722737291E-01 -6.371722890345E+00 -1.706056617527E+00 -5.092430352933E+00 3.137570664418E+01
 3.421738959945E-01 1.204803108858E+00 -5.088495949414E-01 4.234583354067E-01 -4.738848852370E+00 -4.804605345870E+00 8.838571437140E-01 -5.791349563959E-01 -4.676906796044E-01 1.503558822941E+00 7.907206406137E-01 -1.427094735502E+00 2.375864317900E-01 -2.489724263897E+00 1.446608265151E+00 3.909083294282E-01 -1.822947859582E+00 -1.667798325377E+00 -1.394573316576E+00 -2.889703293992E-01 -2.466360225187E-01 2.984447663284E-01 1.808778098361E+00 -6.985057933459E-01 4.437992921391E+00 -3.355454055284E+00 8.942187953282E-01 -7.202959220351E-01 -2.207621675814E-02 1.744996235614E+00 1.227298311874E+00 -1.088382151224E+00 1.191248505838E+00 1.537668093008E+00 1.991988108063E+00 -4.887330976858E-01 -1.114755387663E+00 1.026564092535E-01 1.332380161216E+00 -2.288674825816E+00 -8.435949434127E-01 -1.485538179240E+00 1.961427127625E+00 1.653471411156E+01
 -7.566845134701E-01 4.625384811617E-01 1.973942154794E-02 6.759580328484E-01 -1.528244687335E+00 -3.110555325640E+00 1.127962158372E+00 -2.302132558519E+00 -2.933000487723E-01 9.447337128800E-01 -1.962106638488E+00 1.788855972858E+00 -2.210286088574E+00 6.514049903476E-01 9.105946285524E-01 -1.163382821442E+00 -7.741040819619E-02 -1.052757461215E+00 5.295454858422E+00 -7.924154379698E-01 -1.025355939876E+01 6.541014077840E-01 -2.949035079743E-01 -2.959338294669E-01 -1.653229430776E+00 -1.980488772328E+00 -4.430749291676E+00 1.284016325114E+00 9.622037148244E-01 -1.237063978425E+00 7.780802706678E-01 6.742753167978E-01 4.832785213010E-01 1.144989502190E+00 -4.702384238721E-01 -2.377864940329E-01 -3.999717217070E-01 8.138117987592E-02 -1.748076225172E-01 -4.261050166725E+00 -5.379547874620E-01 -1.665992227800E+00 -6.828541761635E+00 4.077671669795E+00 2.035573255394E+01
 -5.332083300758E+00 -4.674237784945E+00 -4.335768256036E+00 -6.431686418284E-01 -2.417821836475E+00 7.404636653155E-01 3.422444782176E-01 -4.975842164752E-01 -3.719493868023E-01 -1.863897363455E-01 -1.800353382281E+00 4.524569985090E-01 -6.674590401441E+00 3.194479266509E+00 -4.618974117314E+00 -2.124353618900E+00 6.623286353348E-01 -2.100405695122E+00 1.054705699692E+00 7.258654303185E-01 -3.178003725221E+00 -2.101467424202E-01 -2.462136305603E+00 -3.557107167607E+00 5.164647251813E-01 -3.644645515364E-02 8.750815978974E+00 1.607200956387E+00 -4.089961514849E-01 1.824677737389E+00 8.034384221400E-02 -9.566697182044E-01 3.738690213715E-01 -1.755580810371E+00 4.944781372220E-01 -1.557142548954E-01 -2.740130901625E+00 -5.930507901176E+00 3.949996471349E+00 1.647071401042E+00 3.540762263333E-01 -2.758173812582E+00 -1.054144447957E+01 -8.345265181134E+00 3.838869590726E+00 2.490064124625E+01
 -6.501071157356E+00 -7.239344262732E+00 -7.491725246207E+00 1.112496779784E+00 -1.251015382928E+00 1.183940618427E+00 -1.636253215021E+00 8.600507187725E-01 -6.434211840957E-01 1.700914919359E-01 -4.698122569082E-01 1.856027233397E-01 4.509021299430E-01 9.795076873956E-01 2.369920851203E+00 -6.804405660620E-01 1.811209980431E-01 -1.413348794082E+00 -2.649320366224E+00 -2.144545813063E+00 -6.353680542580E+00 2.013384450290E+00 -2.092328366564E+00 -2.742704024598E+00 -1.641878284572E+00 -3.040781180942E+00 6.580053587313E+00 2.898009096504E+00 2.967726407751E+00 -9.495668291128E-01 -1.185734593029E+00 5.025604909875E-01 -1.149779956365E-01 -3.470901778594E-01 3.068867068363E-01 7.543973037081E-01 -3.060333719655E+00 -3.927896924338E+00 3.846984722701E-01 1.923858070226E+00 -4.177036405330E+00 4.675273719709E+00 -8.752470247904E+00 -5.572033771691E+00 3.063603896418E+00 1.809049524309E+01 2.469158877371E+01
 -4.904799417147E+00 -2.452161987139E+00 -5.264931265188E+00 -1.341769355891E+00 1.320380289518E-02 1.573012055823E-01 -1.650458902786E+00 -1.815763262926E+00 -9.227223137464E-01 -1.426582317363E+00 -3.623753529734E-01 8.565591112051E-01 -6.894822398484E-01 -1.670819958495E+00 5.031409604695E-01 2.042188604642E+00 -9.568013159942E-01 -1.758183120682E+00 -1.981065339877E-01 -3.737822504280E+00 -2.760542522624E+00 -1.921303319191E+00 -4.474133005225E-01 -2.839549058796E+00 -2.665811173355E+00 5.593987408374E-01 -1.130556800011E+00 -1.950388236727E+00 1.924195092154E+00 -9.486378488107E-01 1.215058136997E+00 2.201948002111E+00 8.661969645633E-01 2.061162581963E+00 -1.375343859248E+00 1.645599703497E+00 1.829491510683E+00 -5.497296427623E-01 -8.791290066058E-01 8.616054884100E-01 6.772455257586E+00 -1.496576253272E+01 6.650715988438E+00 1.363504127312E+00 -1.500516089917E+00 -7.770127977923E-01 -3.536813866167E+00 4.088157206543E+01
 7.593697885422E-01 1.037271612001E+00 2.266810384185E-01 -6.956325857897E-01 7.171064689462E-01 4.339015310737E-01 -1.034999248338E-01 2.483907588938E-01 2.001187897172E+00 1.006200779191E+00 -4.783344989076E-01 9.375189082642E-01 -9.432239310755E+00 3.953311663956E-01 6.843450783523E+00 1.076790346236E-01 -2.826563986632E-01 -6.899175035335E-01 2.117550517200E+00 -1.722379766879E+00 -2.703104980757E-01 1.151109823399E+00 1.299059206689E+00 2.856772690149E-01 -5.682891219587E-01 -1.115183079252E+00 -1.358301008368E+00 -7.444115065216E+00 -2.725189085234E+00 -7.063156049380E+00 1.212587733926E-01 -1.882229478266E+00 5.360694022622E-01 -4.176626944935E+00 -7.703400260939E+00 3.100447090413E+00 -4.890571666421E+00 7.604308006495E+00 -1.931804612308E-01 -2.008986254027E+00 -1.176761526856E+00 1.111369681546E+00 -1.641756083326E+00 3.681036116918E-01 1.709834087998E+00 4.615934096804E-01 5.660974536879E-01 4.479182118634E-01 2.820654342438E+01
 -2.016424171597E+00 1.610425127263E-01 5.273975922163E-01 -2.176832702499E+00 -2.115323727156E+00 9.075428566292E-02 -9.720868760159E-01 -1.412453859143E-01 -3.900290993999E-01 1.611606576121E+00 -2.463927967533E-01 1.118975834232E+00 -4.360838667422E-01 -1.691702047106E-01 -3.413721060068E-01 -2.853639585987E+00 -5.786387346828E+00 -4.039872580378E+00 1.561821000102E+00 1.141194322124E-01 -1.590180353680E+00 6.881302490477E-01 -6.325778429020E-01 3.885639732608E-01 -1.263690285435E+00 -4.536351079533E-01 1.082496466310E+00 -2.118908590912E+00 1.954380415442E+00 -1.113010955963E+00 -6.556596906931E-01 1.133856819828E-01 -1.196774041543E+00 -3.535029008002E+00 -1.028678027652E+01 2.151516938903E+00 4.902014787471E+00 -3.447308632989E+00 1.624852599027E-01 2.098099439338E+00 1.127143094568E+00 3.749711115929E-01 -3.390648030998E+00 -1.092711627459E+00 4.024458932912E-01 3.270640282694E+00 1.114722775128E+00 1.068699801296E+00 2.147639636334E+00 2.072698730294E+01
 -3.097507413423E+00 -1.660482973721E+00 7.878903909340E-01 -1.820678649718E+00 -2.214726402863E+00 -2.652326414032E+00 8.540671163719E-01 -1.349118663456E+00 1.757431700616E-02 -7.278663936375E-01 -1.964379723870E+00 2.700341127115E+00 8.757514322688E+00 1.995306436828E-01 -8.051575289006E+00 -1.445623501682E+00 -4.524959096972E+00 -5.559078349839E+00 -7.117910868042E-01 3.029613938034E-01 2.685943861460E+00 -1.180320384763E+00 -3.926109391154E-01 5.856497478936E-01 -4.560209538250E+00 3.835561619865E+00 -2.330309062047E+00 -1.407189741564E+00 -1.931359463790E-01 1.352706800976E+00 4.005495510322E+00 1.035137667166E+00 -6.913216303212E-01 3.077533533916E+00 -3.070009641173E-01 -1.085543297833E-01 1.418349426155E+00 -5.833127903530E-01 -1.329250512408E+00 1.359373431997E+00 3.185916380213E+00 -1.195172403502E+00 3.514875042731E+00 3.426185489159E-01 -1.188810899628E+00 1.334035270728E+00 5.924281596442E-01 1.485933329802E+00 -5.701225277986E+00 1.438489372318E-01 1.912918423357E+01
 -2.006284825212E-01 -2.872817589393E+00 -1.194874226219E+00 -9.196364402249E-03 -1.791845030332E+00 -8.574843642163E-01 -9.781364957729E-01 2.046704672141E+00 1.464848212217E+00 -1.854072180837E+00 -5.194477894650E-01 4.631388688008E+00 3.417208366278E-01 1.956425638799E+00 -1.650452113163E+00 -9.786692496597E-03 -8.729098753574E-02 -1.539943137383E+00 -2.942505858214E+00 -4.751702742265E+00 2.225247161531E+00 -1.478946911557E+00 -8.836618854243E-01 2.160396303911E-01 1.204907036720E+00 1.024078623845E+00 -3.446634553934E+00 -2.030238303142E+00 3.211429468278E+00 -9.210395023538E-01 -7.776793977149E-01 -6.822415798483E-01 2.111925369210E-01 1.426686669957E+00 -8.013260284636E-01 -3.978289144064E-01 -5.085928854918E+00 3.172150448951E-01 -3.736377932295E+00 2.391511588395E+00 1.998419931846E+00 1.700119978779E+00 -7.036556966947E-01 1.426859865832E-01 -8.571932830415E-01 -9.103029057594E-01 -1.261202861297E+00 1.456906399802E+00 -9.310837968482E-01 1.098931314706E+00 1.836449719141E-01 2.083919821053E+01
 6.870625608764E-01 2.038134962160E-02 1.343379884090E+00 1.534777082089E+00 -9.898654054440E-01 -5.755669732057E-02 2.738275777257E+00 -8.492808787396E+00 -4.341582365896E+00 -2.011168942316E+00 1.079737743426E+00 1.332326908591E+00 -5.322875138649E-01 1.641019411437E+00 -1.162734509951E+00 -6.544492135646E-01 -5.871068629989E-01 1.126559640247E+00 -6.653137062368E+00 -9.778417112500E+00 4.358110084850E+00 8.582108119532E-01 -1.009107107588E+00 7.033740919583E-01 1.460185071216E+00 4.617660574707E+00 -1.953003224804E+00 7.535325812791E+00 -1.757235833554E+00 3.174394629090E-01 -1.705088387694E+00 -2.230505490268E+00 -2.393526044517E-02 -1.900549656316E+00 -3.145473121774E-01 -1.088216844488E+00 -3.165447756524E+00 -2.572340912492E+00 -1.812743648567E+00 1.328337986491E+00 -1.261018803122E+00 1.246586032189E+00 8.665807451024E-01 -9.794522471328E-01 -7.299362520154E-01 -7.248055806247E-01 -1.394260018467E+00 2.776913027948E+00 2.243351247481E+00 -4.007880199214E-01 8.366928070927E-01 -1.344974029051E-01 2.502561275579E+01
 7.465529171812E-01 7.099338138480E-01 1.297603805631E+00 -4.594415423943E-01 -6.691539817778E-01 -1.607654671059E+00 3.196927954271E+00 -4.786822421314E+00 -5.584077394665E+00 -5.621198983610E-01 3.645949749901E-01 1.144782333969E+00 3.939561367107E-01 3.599780299567E-01 4.302581668968E-01 -6.775400038786E-01 -8.589967623924E-01 8.449527345784E-01 -1.505650294245E+00 2.706053005577E+00 3.311262757122E-01 7.835427725668E-01 1.163031256385E-01 6.951302314669E-01 1.676268232942E+00 9.633852984183E-01 -1.387000213466E+00 -2.865398003875E+00 2.340193581760E+00 3.278148865323E-01 3.967656489398E-02 -4.122340074189E-01 -2.797874114978E-01 1.164736733959E+00 -3.441814238585E-01 -3.174207182814E+00 -4.544189259874E+00 5.415521562435E-01 -2.335005414127E+00 3.149214320422E-02 1.043960277120E+00 -1.052042212951E+00 -7.998086961233E-01 -4.294949258402E-01 1.464521380419E+00 1.099449018956E+00 2.965035871563E+00 -1.296902791893E+01 -9.144659546699E-02 -8.435584808778E-01 8.916243061135E-01 1.155494970207E+00 -2.442850296196E+00 2.186383314492E+01