#BIOSYM hessian 1
@Type: Hessian Update
@Units
 distance: 	A
 energy: 	Kcal/Mol
#header
@natom 19

#label
L1      L2      L3      L4      L5      L6      L7      L8      L9      L10     L11     L12     L13     L14     L15     L16     L17     L18     L19

#element
Li Li Li Li Li Li Li Li Li Li Li Li Li Li Li Li Li Li Li

#matrix
57
 2.040146682207E+01
 -1.200419813513E+01 1.882458720912E+01
 1.015690450571E+01 -5.187023586494E+00 2.372870608227E+01
 2.107861820251E-01 2.569668951497E+00 2.167220974876E-01 1.807783403049E+01
 5.950158688732E-01 -9.278069268077E+00 -7.324021844443E-01 5.759693874363E+00 3.442196859997E+01
 -8.266881713619E-01 2.188388747805E+00 -4.665686006278E-01 3.205810898776E+00 3.106234894948E+00 2.254337065832E+01
 -7.639765299587E-01 -1.053759413995E-01 7.474351069115E-01 -5.902122997964E+00 2.291999387096E+00 -2.322007315702E-01 2.438084099644E+01
 4.098551242381E-01 -2.224998371997E+00 -5.811824631121E-01 3.349826530310E-01 6.701621409838E-01 8.817758064937E-01 -2.689846958860E+00 3.189230949301E+01
 -1.572743650241E+00 1.231425273721E+00 -1.957940183414E+00 -2.951473123949E+00 3.061060743811E+00 -2.391712216333E+00 -1.922631294836E+00 6.328760047309E-01 2.530787146542E+01
 -6.122632213442E+00 4.822241018389E-01 1.675308127528E+00 -4.529240018791E+00 -1.454493878116E+00 3.119673449288E+00 -4.523316014265E-01 1.182957816469E+00 3.759548779647E-02 2.196138524193E+01
 7.697357303114E-01 -9.730665131694E-02 -7.868586811086E-01 -3.929553840107E+00 -4.015381627827E+00 2.056251471769E+00 -2.016304387237E-01 -3.250366484404E+00 3.045546755552E+00 3.730518000346E+00 9.841275981255E+00
 1.665663874580E-01 -8.933633511677E-01 3.626360491702E-01 5.255848440020E-01 2.249902304472E+00 -1.912080454425E+00 -3.234161337743E-01 -1.281784700029E-01 -3.423123248320E+00 -9.033167001066E+00 -3.950314443522E+00 3.317292539382E+01
 2.413618465634E-02 6.831419884935E-01 4.564563284663E-01 1.506470066419E-01 -1.255734855342E-01 1.169720286003E-01 2.651377569944E-01 1.439821211641E+00 -1.752224169713E-01 -8.386820263934E-01 7.000751899357E-02 -8.574998531319E-01 2.289048976112E+01
 1.881392933104E+00 -1.563305411840E+00 -1.575445006521E-01 2.208561017131E-01 -3.282977370032E-01 6.902077830192E-01 -2.455550599114E+00 -5.136504409285E-02 1.161415730309E-01 -8.893666609859E-01 1.010916764885E-01 1.169131797654E+00 -2.737175904760E+00 3.138413382724E+01
 -9.990771374198E-01 2.476815009557E+00 -7.276764547984E-01 6.426127339875E-02 -2.730140323044E+00 6.985771251321E-01 2.171071107170E-01 -6.797189510823E-01 1.640230667253E-01 1.372533965984E-01 -3.158389866445E-01 -3.730786499648E-01 -3.191744859095E+00 -7.335569920225E+00 1.359791025507E+01
 -1.014090420188E+00 1.152197095683E+00 1.093662443412E+00 -3.189935401996E+00 -7.767858605691E-01 2.313052138656E+00 1.496965163989E+00 1.283886390117E+00 -1.820762509874E-01 5.721437289045E-01 4.335900063423E-01 1.845723458377E+00 3.156457183136E-01 4.639898173329E-01 7.838211203254E-03 2.956556537421E+01
 4.964953817487E-01 -2.696674410938E+00 -7.081651365923E-01 6.936489413240E-01 -1.236390691008E-01 -2.398239261702E+00 4.628214265533E-01 1.923430631063E+00 -4.424728327357E-01 -5.704511600129E-01 2.804626174234E-01 1.171598453412E+00 -6.930138516995E-01 7.130066099568E-01 -8.176507968009E-01 -4.219595379897E-01 2.574361531767E+01
 9.855892667761E-01 4.919433671077E-01 -6.855184438239E-01 3.089297213408E+00 -2.246858232910E+00 -5.740173460500E+00 3.800400495675E-01 1.793148537031E+00 1.514259095346E+00 1.002192905366E+00 2.274893659423E-01 2.626983805593E-02 1.137893020547E-01 -1.056597203227E+00 -1.629034359652E-01 -3.856160162898E-01 1.208575697038E+00 2.114174598569E+01
 6.541350843518E-01 -7.411642911508E-02 -3.370423736413E-01 2.153973940565E-01 6.766074240919E-01 -1.514895499463E-01 -4.807091914685E+00 -4.831179560428E+00 1.900338938240E+00 -4.292688462881E-01 -4.465142741433E-03 2.607806631781E-01 -1.282871085167E-01 2.611353380431E-01 1.749353791883E-01 -2.593353529915E+00 4.458232901523E+00 2.027785011057E+00 2.030153715186E+01
 5.541165641592E-01 -9.479963801103E-01 -1.659007582576E-02 -1.660875552444E+00 -1.837882738022E+00 3.638446989526E+00 -1.542941847393E+00 -1.240166529470E+00 -5.131351032183E-02 6.656971346765E-01 -1.190737320384E+00 -3.995431944763E-01 8.953508155231E-01 2.270002201258E+00 -2.180604724641E+00 4.645653181688E+00 -7.503800097389E+00 8.123558208550E-01 4.974200229580E+00 2.753214369642E+01
 -3.525321752837E-01 2.338457548357E-02 2.140662578271E+00 9.601882922198E-01 4.356300021939E+00 -5.259620034507E+00 -9.024315201032E-02 2.456136986401E+00 -5.797495466676E-01 1.160116764250E+00 2.989308132719E-01 -2.298710409891E-01 -1.787050446731E-01 6.565077789404E-03 5.107864462259E-01 -8.937221209434E-01 -2.352575074355E-01 -1.291343982973E-01 3.635265664118E+00 7.498648231488E+00 2.650542343392E+01
 -8.899559354870E-01 2.060711533609E-01 1.592110162155E-01 1.108178802350E+00 -1.808589327157E+00 1.107366159831E+00 -1.734599471399E+00 -4.304705993974E+00 -4.289933744426E-01 -2.558495938627E+00 8.616568779835E-02 -9.638785469553E-01 -8.035553137274E+00 6.978639714530E+00 1.421153477888E+00 -8.360439423984E-01 -8.398587639146E-01 8.753262896630E-01 7.161228396959E-02 1.724023152459E+00 -8.761406521916E-02 2.756354101850E+01
 1.347987091631E+00 -1.988214201518E+00 -3.015816907015E-01 1.231518611957E-01 3.291033566179E+00 -6.042427221614E-01 -6.953209636378E-01 -6.899427575048E+00 2.985728840118E+00 -1.750404217799E+00 -4.264129659619E-01 7.594741867753E-01 7.086993609793E+00 -7.651269958551E+00 -2.482449106514E-01 -6.359755492751E-01 -5.302872470474E-01 -2.447931681558E-01 -9.422575522400E-01 -3.881944025378E-01 -5.685682761575E-01 -3.259244994261E+00 2.880946046157E+01
 -1.661301569338E-01 3.331660551638E-01 -3.619478061490E-01 9.190404124051E-01 -1.961810431907E+00 2.275001863155E+00 -1.134746399256E+00 6.690727948858E-01 -2.733907469988E+00 -4.249665297818E+00 -1.819749248582E+00 -4.266924621031E+00 -9.386407002724E-02 -3.722704173452E-01 -3.157945156646E-01 4.713470537460E-02 2.386822060516E-01 1.011789104793E+00 -5.348078669363E-01 1.478442798035E-01 -1.835558393366E+00 1.631285761478E+00 -6.391570948307E+00 3.318711047996E+01
 -1.279415672261E+01 7.532266149555E+00 -1.326529959600E+01 -4.894223706505E+00 -4.953733873096E+00 -8.356154130158E+00 -3.426779458108E+00 7.124727307832E+00 3.289135307378E+00 -5.094859966067E+00 4.740371239452E-01 8.570277827121E+00 -2.015108667219E+00 -3.364529499048E+00 -1.018887359232E+00 -1.213552181026E+01 -1.566857866600E+00 2.589685555838E+00 -1.067402199447E+00 -6.573578923004E-01 9.288550610740E-01 -1.189960721538E+01 -1.185010275561E+00 -4.126268706080E-01 5.414798101088E+01
 7.838831712669E+00 -2.838558406413E+00 1.058565337759E+01 -7.308640321682E+00 -1.604462854551E+01 -1.022638432539E+01 8.124330359262E+00 -1.116606686966E+01 -6.022825758569E+00 -1.998378468992E-01 -1.006080396721E+00 1.758652889123E+00 -2.967673798108E+00 -1.258250873635E+01 -3.622738864344E-01 -5.945385645760E+00 -4.247877783136E+00 7.853705333385E-01 2.202797463548E+00 4.533210173296E+00 1.354421987637E+00 -1.450536005428E+00 -1.832148936526E+00 1.391703965205E+00 -1.822585166903E-01 5.625196253495E+01
 -9.745480505825E+00 3.713810698349E+00 -1.235943416699E+01 -5.046621814842E+00 -3.248278700860E+00 -7.945246696281E+00 5.165478303842E-01 2.143768590037E+00 4.801969431272E+00 8.866481975254E+00 2.036411979442E+00 -1.862772705411E+01 1.468124496357E+00 -1.960145074644E+00 -2.243068686451E+00 3.469826871826E+00 2.663366731781E+00 -6.786955683450E-01 -1.460669478453E+00 -1.345264365586E+00 -1.194782444239E+00 -6.056936156039E+00 3.697753519767E+00 -3.106157447430E+00 1.232413672016E+01 -3.284864045423E+00 7.521980290611E+01
 1.120552257730E+00 -2.716625698421E-01 -9.612535814232E-02 -1.138644825103E+00 -1.498718069283E+00 -1.864827702761E+00 -2.433093746637E-01 4.541934830776E-02 -1.872233940065E-02 -5.005848426275E-01 -3.014567643099E-01 -9.317503827396E-01 -1.743688518722E+00 -5.614892622766E-02 5.320229006723E-01 4.666103486264E-01 -2.944265156613E-01 -1.655888623407E+00 -9.938159974926E-01 -5.969458703662E-01 -9.116241588806E-02 9.682931254429E-01 5.780296406132E-01 3.967586763861E-02 -7.761861724964E-01 1.441907737375E+00 1.554800091740E+00 1.749367594003E+01
 -1.940654749686E+00 1.063777326307E+00 -1.697309599602E+00 7.218457310309E-01 8.750566160401E-01 2.007046882761E-01 -1.325023722188E+00 -8.757878808925E-01 -8.770026394033E-01 -1.321449956368E+00 1.816912356851E-01 1.455240517616E+00 -1.575127480479E+00 -1.065548926130E+00 2.477529024298E-01 7.413644833528E-01 3.355898900794E-01 8.150635228966E-01 2.098383163811E-01 -5.590953977839E-01 -5.753484109656E-01 8.136954641208E-01 -1.419537272456E+00 2.189837222003E+00 2.340833020491E+00 -1.128749862887E+00 1.797122063214E+00 -4.716041042989E+00 3.125927950939E+01
 -9.063072163172E-01 -2.593081203423E-01 -1.212263865844E+00 3.029490447214E-01 -3.557207732470E-01 6.512029991914E-01 -1.406787021604E+00 1.456041202903E+00 -1.654157813441E-01 -3.767966369465E-01 -2.741358699316E-01 -5.919723384004E-02 -8.364775035597E-01 -2.824562328861E-01 -7.830087488637E-01 3.477354528641E-01 1.158276591246E-01 1.564032434927E-02 -5.835175852421E-01 4.540108881832E-01 -1.752013482991E+00 2.372600745647E-01 -1.693739737924E+00 1.752352549186E+00 1.023371236837E+00 -1.672979160779E+00 -1.728826364830E+00 -3.529637021612E+00 1.532301423096E+01 1.929078748957E+01
 4.899221255054E-01 4.439775224671E-01 4.403483199535E-01 6.968193291719E-01 -4.446974187037E-01 -5.985365731023E-02 -9.959233472521E-01 1.513290296626E-01 -1.922701549338E-01 -7.832708607814E-01 -9.202549822253E-01 -4.126113750294E-01 -1.029199391386E+01 -1.279786088890E+00 2.292332320887E+00 -1.715140172014E+00 -6.825404137412E+00 -1.249116854128E+00 -2.961102476579E-01 -2.402790593978E+00 7.634019532181E-01 2.351684465992E-01 9.586944268254E-01 4.976893986104E-01 -5.821284564309E+00 3.944675055804E+00 3.158627195365E-02 -4.506395539111E+00 1.474992525392E-01 -1.414033042278E-01 3.988155609813E+01
 2.130327792711E-01 -3.252497284787E-01 -2.009192184958E+00 2.115922465006E+00 4.097636031800E-01 2.477024279474E+00 -1.996579230578E+00 -3.014976690582E+00 6.892688971829E-01 1.036352718912E+00 1.774786163816E-01 -6.825516193247E-02 -3.347428754308E+00 -1.353328669471E+00 3.176821000166E-01 -1.963230557245E+00 -9.328738071561E+00 -6.938165061448E-01 1.547733308204E+00 2.597334773051E-01 -1.257786890124E+00 -9.119445649440E-01 8.747072542583E-01 -1.921554266621E+00 3.374840140322E+00 -3.670349606285E+00 -2.404321216033E+00 -1.918210920752E+00 -2.396350071764E+00 -3.051397180155E+00 -1.280855747364E+00 2.540659306676E+01
 1.404097210870E-01 -2.611519857792E+00 -8.765352833771E+00 1.011646081842E+00 -7.095486308211E-03 4.674451430669E-01 1.573012873712E+00 -6.716631077377E-02 2.436352322244E-01 -2.396722185204E-01 1.409823058356E-01 -2.244694514887E+00 2.833929560690E+00 -1.095136568168E+00 -1.591135334928E+00 -4.276195155893E+00 -2.719671824953E+00 -4.675266671651E-01 1.949903293957E-01 4.046341196830E-01 3.840148362740E-01 3.411895869992E-01 -1.071164645655E+00 9.771722436127E-01 4.500477713028E+00 -3.456010270722E+00 -2.497605944523E+00 -1.149683474575E+00 -6.469008571755E-01 -5.478366387765E+00 5.483606492077E+00 -1.779949926488E+00 3.553580278417E+01
 -1.399487886159E+00 1.558957079669E+00 -3.295220909099E+00 7.795325928113E-01 2.525983157975E+00 1.100101777415E+00 -2.058688428555E+00 3.787205458674E+00 3.205659466063E+00 -2.036837448642E+00 -2.210473459048E-01 7.115042385431E-01 -1.669765432086E+00 1.078192600454E+00 1.450380774209E-01 -8.643861994096E+00 2.135015882139E+00 -4.873120589572E+00 -3.210245106855E+00 -5.977232102407E+00 -1.862341128930E+00 3.118076560630E+00 -1.419172640945E+00 4.102464249040E-01 2.176145567295E+00 -2.249188028949E+00 4.855559576937E-01 3.178501052021E-01 -1.575540311094E+00 9.420442705050E-01 -3.100823470440E-01 -2.130890027543E+00 -1.074327684549E+00 4.883870879619E+01
 -4.915250421565E-01 7.713322178044E-01 1.471863458647E-02 6.291595923881E-01 -1.495731276574E+00 1.584337359737E-01 1.217989866732E+00 -1.123180591705E-01 2.615059708767E-02 -2.900806824166E+00 2.434033813181E-01 4.194023975635E+00 2.525133237260E-01 -1.262820887161E+00 -8.221576392301E-01 1.264766517329E+00 3.168679146552E+00 -3.713643704594E-02 -6.608057345254E+00 -1.646984509495E+01 -1.006059381564E+01 -1.731903308295E-01 9.293158243844E-01 -2.344939761245E-01 2.283299521108E+00 -9.040995080692E+00 9.666730409410E+00 1.624675406772E+00 1.996471818562E+00 2.234386785060E+00 1.999193909714E+00 -2.480271901385E-01 -1.113592691436E+00 3.763125890806E+00 7.463766467534E+01
 -7.076325924363E-01 3.903579344167E-01 -6.688471977516E-01 4.276352387021E-01 3.109558454666E+00 3.864394455364E+00 7.461165803545E+00 -3.945741643529E+00 -8.580164100411E+00 1.916088462419E-01 -4.837463246019E-01 8.322607402083E-02 -1.490773969506E-01 -2.865904110555E+00 1.827475338016E-01 -5.190633788518E+00 7.202781312019E-02 -2.596103209988E+00 -5.552726889382E+00 -1.152863534351E+01 -8.340703459260E+00 -3.178412133282E+00 1.353826289954E+00 1.059228035805E+00 1.412091341729E+00 1.057890021896E+01 -1.249432394133E+01 1.234338918948E-01 7.040894788173E-01 2.386568576576E-02 1.768540808286E+00 -6.753260681125E-01 4.667393196602E-01 2.337187340131E+00 -5.967010281367E+00 6.415883711813E+01
 -1.234005899348E+00 5.640158421639E-01 -1.170687609683E+00 2.715631709856E-01 2.006634879176E-01 -5.414781003214E-02 -3.832504290323E-01 -1.688344337632E+00 -3.063597498100E-01 -5.299716237003E-01 8.466284039986E-01 -9.819934082943E-01 1.174298438531E+00 -1.474200886616E+00 1.882657751667E+00 4.023396944212E-01 2.918012549724E-01 -8.109370309016E-01 -1.030630542780E+00 -1.356307466206E+00 5.059913548901E-01 -1.168716651849E+00 3.226486360445E+00 -1.768567289062E+00 2.952757326213E-01 -6.936652863883E-01 -1.945201762885E-02 -4.570766747788E-01 -5.428242019335E-01 -1.109133094373E+00 -9.593418868276E-01 -2.292417909267E-01 -1.725132602684E+00 -2.174458019396E+00 6.768379246177E-01 -3.340058752899E+00 2.158821391213E+01
 5.575386046161E-01 -9.205929279723E-01 7.328664129182E-01 4.727206991481E-01 -1.526909037355E+00 1.948649743475E-01 -1.898672568840E+00 -2.752853020807E-01 -1.367786151350E+00 4.200961469372E-01 -1.720417654027E-02 4.640537629520E-01 1.718636896899E+00 4.789444993920E-01 -1.005020001756E-01 -1.430842842150E-01 9.879557416861E-01 -1.340053742506E+00 1.491678414098E-01 -1.334630372139E-01 -1.661258251904E+00 -1.161379730073E+00 -5.269175372216E-01 -8.046794308640E-01 4.346019546406E-02 -6.158246839864E-01 -6.221382431693E-01 -6.811323266827E-02 -9.277348959874E-01 1.766845189071E-01 -9.098646969855E-01 -9.670149910820E-01 1.437939258192E+00 -1.089789012035E+00 7.297258778831E-01 -3.343174550912E+00 -2.201138460001E+00 1.161487112832E+01
 9.713953817558E-01 -1.499511574649E+00 -2.422259368475E+00 1.703634483784E+00 -5.948715966707E-02 -1.837555857520E+00 -4.217487459937E-01 -9.794633114932E-01 3.541150985581E-01 -5.905957380431E-01 1.060252636754E+00 -2.148951823202E+00 -1.227361195909E+00 -5.753785541659E-01 1.107444185863E+00 -1.808131760928E+00 1.615174135414E+00 3.248414686702E+00 1.581738250503E+00 -3.078265304726E-01 1.168197066207E+00 1.517819025816E+00 -8.443351791174E-01 -6.882416374332E-01 4.940910706206E-01 -2.394074778527E-01 2.081984651620E+00 3.934388247699E-01 -6.571371453826E-01 1.313232838640E-01 -1.722455425773E+00 8.593522778457E-01 -8.863213623274E-01 -4.777942001950E+00 -6.201429618504E+00 -1.627563430837E+01 4.381355611360E+00 -8.807445355781E-02 4.243715347245E+01
 3.439990190118E-01 -1.874933433462E+00 6.862398179587E-01 3.189176722742E-01 7.478671136733E-01 9.493312753640E-01 3.101534849109E-01 -1.112567925972E-01 2.600701136899E+00 7.754738993771E-02 -7.763570404140E-01 -5.994993588959E-01 -2.900553415411E-01 -4.312246122578E-01 1.155482258046E+00 1.742788036082E-01 1.021718020671E+00 -7.547752432571E-02 2.685690954596E-01 2.543311873722E+00 -2.153249009637E+00 5.588958650322E-01 7.832683609474E-01 4.149924142719E-01 -1.054691485417E+00 1.592173514384E+00 1.886002143505E+00 -7.602001261814E+00 2.140991905735E+00 1.484903517505E+00 -1.192895471432E+00 -1.179950996789E+00 -7.103178565828E-01 9.609724085839E-01 -4.684947576152E+00 -6.086462813092E-01 1.840941407952E+00 5.974138033995E-01 4.182786738263E-01 3.275075217492E+01
 7.995266121640E-01 2.932586271631E-02 2.301810387735E-01 1.389337516182E-01 -1.858888303432E+00 -2.130226209959E-01 -9.891085374252E-01 -1.587884040517E+00 1.798364863780E+00 3.162440889922E-01 -5.990150942761E-01 -1.943407338442E+00 7.788577470319E-01 -1.022470182069E+00 1.155653715397E+00 5.464932146017E-01 -2.633832032398E-01 -3.710759584242E-01 -2.018876157951E-01 1.598515404763E+00 -1.568338560225E+00 -2.998766065331E-01 -1.827989961871E+00 -3.268806354021E+00 -8.086025097429E-01 2.521443742369E+00 2.789268270198E+00 2.302739925901E+00 -1.302127209468E+00 -1.575634634657E-01 -8.534832402257E-01 2.080222099807E-01 5.421305180603E-01 -5.187972469616E-01 -2.018503667544E+00 -1.023803331098E+00 1.467824153653E+00 -1.142964415960E+00 5.775078046107E-01 9.706977622509E+00 2.015791681698E+01
 1.041413195388E+00 -7.223030297852E-01 1.500011210107E+00 -1.110625952021E+00 -1.701810924393E+00 -1.748256617913E+00 3.342852130858E-02 -1.284083862890E+00 9.643374073737E-01 -1.143386247885E+00 -1.623585334977E-02 -2.614880403814E+00 -5.649671650215E-01 -8.768256120698E-01 -1.868240974246E-01 1.014906124920E+00 8.927418057900E-01 -2.133800362847E+00 -3.993483249944E-01 1.094854238890E-01 -5.772826530845E-01 -1.338377529295E+00 -4.369494497474E+00 -8.105130537281E+00 -1.525716570777E+00 1.918884136245E+00 1.214275708300E+00 2.559071640698E+00 -8.333984297952E-01 -2.880319301999E+00 -6.333520119351E-01 -1.892536956050E-01 1.280037174528E+00 -1.142392098529E+00 1.047592597200E+00 -3.045658240123E-01 1.356324084233E+00 2.085997336665E+00 5.463402569250E-02 5.119917621953E+00 7.889229069189E+00 1.721687287645E+01
 -1.248224407431E+00 -1.663258029384E-01 -1.005163589809E-01 -9.935272510387E-01 5.525243506498E-01 1.511336302759E+00 -7.195885258106E-01 -1.184318636425E+00 -2.271690232289E+00 2.128323663410E+00 1.740932664583E+00 8.753529297801E-01 5.815534162965E-01 2.154522475627E-01 4.707447090930E-01 3.578277323391E+00 3.197802478759E+00 8.512006772861E-01 -1.904194767360E+00 1.045315562534E-01 1.181041085963E+00 -5.094168491026E+00 -1.466344688158E+00 2.156503606765E+00 5.073178726922E-01 -4.357374591856E+00 -5.414100893246E+00 -9.601513248513E-01 4.453286858612E+00 3.782637648689E+00 -1.937129274330E+01 4.573606350958E+00 -7.960583385312E+00 1.258467549034E+00 -6.258404304433E+00 -4.621400949981E-01 -7.826814978138E-01 2.122875482500E-01 -1.790165112302E+00 -2.368314775564E+01 -1.122648939009E+01 -7.176452355613E+00 6.047636689907E+01
 2.571802771989E-01 1.747637270608E+00 1.186296993685E+00 2.566084047547E-01 -3.281309033584E+00 -3.756245528452E-01 5.263302035105E-01 -1.069870170434E+00 -6.967250494880E-01 1.194332210854E+00 1.123119426514E+00 -4.383811741315E+00 -1.793149297258E+00 -9.113589199877E+00 8.424624520092E+00 2.053020693193E-01 -4.762091691686E+00 -4.629665277493E-01 -9.327165440734E-01 -3.572033295694E+00 2.114290564256E+00 3.331640573059E+00 -1.710938090846E-01 -1.913780682522E+00 -8.317953965133E+00 1.210118905584E+00 -9.212662919570E+00 5.421776047306E+00 -1.949886962443E+01 -1.396412167534E+01 6.797074281679E+00 2.396884308446E+00 3.039982351663E+00 -7.337422911360E+00 -2.055615714829E+01 -3.656389623092E+00 1.693853281204E-01 -4.190718593249E+00 9.429627817363E+00 -1.109338003859E+01 -6.986138795057E+00 -1.395595617033E+00 6.774559919151E+00 7.035877884139E+01
 -1.161155627071E-01 5.109277847015E-01 1.019743661009E+00 3.369292854312E-01 -1.980086804087E+00 -3.683292995973E-01 -3.705554686063E+00 -2.967161749840E-01 -2.767279434842E+00 4.257351070834E-01 -8.864249254241E-01 1.461278806689E-01 1.037992498274E+00 1.097655206193E+01 -8.508421441581E+00 2.959963710551E-01 8.325777406171E-01 -1.484681606608E+00 6.478347139606E-01 1.340112495005E+00 -4.103005137416E-01 5.618776768187E+00 -3.129101564424E+00 -2.255932476803E+00 -8.602490833871E+00 -7.319775064986E+00 -1.752843396783E+01 3.668108686004E+00 -1.348117624116E+01 -7.028319505765E+00 -8.158371663264E+00 2.188894387053E+00 -2.768444901476E+00 6.741629508134E-01 -1.759106307000E+00 2.128246115669E+00 -1.477198670256E+00 5.417429039976E+00 -1.371328642733E+01 -8.415228251024E+00 -3.217478086084E+00 -2.480887355376E+00 1.176531908233E+01 6.519070358381E+00 5.598630901692E+01
 1.260600345245E-01 -1.150096557832E-01 4.922164138921E-02 -1.708198451080E-01 -1.009326841594E+00 -1.328277364563E+00 -2.689932000037E+00 -2.260663233098E+00 -2.955287220676E+00 7.967326671505E-01 -5.701604232330E-02 2.277063709465E-01 -1.049629626875E+00 -1.046576888339E+00 -5.357363998165E-01 -2.709047061993E+00 -5.753047091733E-01 -7.569630945427E-01 4.455016888464E-01 -1.872872311676E+00 -1.686214543695E+00 -5.957090595586E-01 -1.772871440114E+00 -5.123656313662E-01 3.523256583511E+00 -2.941775932350E-01 2.919139459580E+00 4.214933529300E-01 6.467458828462E-01 -9.494493549372E-01 1.174464663163E+00 2.040237822137E+00 1.103667567684E+00 -1.219708810338E+01 1.278299996910E-01 -2.019545941721E+00 -4.940341944495E+00 2.738996573735E+00 6.591057870058E+00 -1.073205255480E+00 -9.526635369326E-01 2.553398932659E+00 -6.491331768490E+00 8.188682427931E+00 1.726761194212E-01 2.898642604237E+01
 -6.897650730391E-01 4.810112753580E-01 6.140564749718E-01 -6.807928724508E-01 -7.404823397889E-01 -3.364075520811E-01 -1.544734141658E+00 -2.886966814543E+00 -5.047212335346E+00 1.399035645070E+00 -8.579909131699E-02 -1.605266066299E+00 9.451585954492E-01 7.267899193519E-01 -1.338623855498E-02 4.721879919711E-01 2.364227746434E-01 -8.064687426056E-01 -8.131182962965E-01 1.025923827306E-01 4.506336500285E-01 -6.141398740550E-02 -9.220301045131E+00 1.235494559154E+01 -2.374211347395E+00 7.757492814237E-01 -2.742254138642E+00 4.995274493220E-01 5.022868007067E-01 1.259418512869E+00 -1.105722478219E+00 -2.109271699557E+00 3.333415201168E-01 -5.068321549305E-02 -1.997749241831E-01 1.786672367815E+00 7.528667096547E-01 7.639086368523E-01 -2.520019169683E+00 -2.979359477573E-01 -8.149368645489E+00 -2.344627253962E+00 4.832035861633E+00 -3.746590793532E+00 2.959430154078E+00 1.213988629819E+00 3.150260887424E+01
 9.775593563848E-01 2.559150793167E-03 2.005520826202E+00 -2.682959323412E+00 -1.109959437685E+00 -1.395719955683E+00 -1.019700340601E+00 -2.670803333495E+00 -7.434606005878E+00 -1.553034265468E+00 -4.985070635004E-01 8.812857242136E-01 5.182085288312E-01 5.744538949336E-01 1.205763585986E+00 1.892141311339E-01 -1.926480764053E+00 -2.221345182923E+00 -6.101426445971E-01 1.940132294335E-01 2.346632802888E+00 2.912854784813E-01 1.110903929111E+01 -1.388967444056E+01 -9.220627138254E-02 2.068045597842E+00 -4.708629038437E+00 1.409016460565E+00 -7.315887045082E-01 -1.551060592585E+00 3.025409027842E+00 -5.077840494967E-02 -1.632874980604E+00 -2.545319618603E+00 -2.628162839896E+00 -1.729685277290E+00 9.500927087713E+00 -2.785509576015E+00 -8.360594141680E+00 -1.221487779429E+00 -2.400884938555E+00 -1.443885756319E+00 -4.317957606918E-01 3.840937098116E+00 1.448280443571E+00 -6.623721990851E+00 -3.258556540967E+00 3.446356266196E+01
 -2.598679726451E-01 5.732026488703E-01 1.638581935385E+00 -6.330107685574E-01 -1.298678714503E+00 2.662028024763E-01 -1.882292971298E+00 1.052121454103E+00 -5.548719449837E-01 -1.395416557395E-02 -9.995142072100E-01 1.834743226589E+00 3.237328302488E-01 1.059668199185E-01 -1.702198260413E+00 -1.416821674533E-01 5.767096184675E-01 -1.734085606444E+00 -4.996851687238E+00 8.738746838279E-01 -2.803380372393E+00 -2.697067583866E-01 -9.538387306519E-01 1.763384833055E-01 6.952662697573E-01 4.644026488621E-01 -1.641887319129E+00 9.894509611350E-01 1.032699468877E+00 1.502864579093E+00 -1.515818089906E-01 -8.011817851203E-01 -3.820818116334E-01 -8.631770374871E+00 1.112264095816E+01 -5.891703436988E+00 -9.961057671129E-01 1.284859624045E-01 -1.983829593006E+00 -2.411348997485E+00 3.572085265868E-01 5.912475288666E-01 3.495821447215E+00 -1.540104840312E+00 2.703651358704E+00 -1.715795114683E+00 -4.117803665744E+00 6.477807998933E-01 2.416297829574E+01
 -8.537165828908E-03 -2.500975225002E-02 -1.172557998320E+00 -8.285139405363E-01 1.238620666935E+00 -1.353032244388E+00 1.384859627548E+00 -3.907656882504E-01 1.079671188912E+00 -7.156687150911E-01 -3.749938188400E-01 7.126459977402E-01 2.898228608716E-01 4.071439047541E-01 1.186636444739E+00 -1.458240877420E-02 -7.248807204270E-01 1.978627789171E-02 -6.174536432815E-01 6.167202291903E-01 -5.163857577832E-01 2.782485809263E-01 -3.146164900812E-02 6.837740334320E-01 -6.289110531662E-01 -1.930189548871E+00 -2.655209110802E-01 1.586305071606E-01 -1.040274216588E+00 -3.735900950329E-01 -7.553653528308E-01 5.161235992654E-01 7.010574854962E-01 1.299237494490E+01 -2.018338755996E+01 9.463916684067E+00 -1.171583950211E-01 -8.887869696372E-01 3.852827110174E-01 7.881985065838E-01 -5.108455937387E-02 -3.020938812058E-01 -6.738188123216E-01 7.070849841263E-01 -8.154648365004E-01 -3.787105406838E+00 -8.831782809563E+00 1.095874328367E+00 -7.990362977766E+00 2.946494521099E+01
 8.073776990508E-01 4.118893678180E-02 7.024912544528E-02 -8.398346921154E-01 3.866108528094E-01 -3.394613041797E-01 2.443230397713E-01 1.952922929215E+00 -5.963478268606E-01 -9.398708985196E-01 5.628275841321E-01 -1.929616099875E-01 1.653398861210E-01 -2.570285305338E-02 -2.251372437822E+00 -8.704960969053E-01 -2.983389603226E-01 -1.394573631837E+00 -4.518650005393E+00 1.111039492421E+00 -4.066159818411E+00 -1.495059466398E+00 1.217466987039E-01 -1.473724773347E-01 5.465546431364E-01 3.122823137420E-01 9.316245292501E-01 7.444619993103E-01 1.562918824801E+00 1.728192731824E+00 -1.993717371653E-01 -4.599228797156E-01 -4.438347483152E-01 -4.347547366011E+00 9.793222643312E+00 -3.809621849600E+00 -3.678229980355E-01 -6.778779451324E-01 -2.776458162392E+00 -1.073896396740E+00 2.450008461588E-01 4.709594262927E-01 4.648495245166E-01 -1.864402233960E+00 4.473485776757E-01 2.018483650118E+00 -2.948298131797E-01 -9.366325595580E-01 7.845162117166E+00 -1.008695732391E+01 1.441968373053E+01
 7.870123815839E-02 2.509744303014E-01 -9.212347598030E-01 4.496010161266E-01 -1.189697199212E-01 -4.637931421247E-01 -7.001296592527E-01 -8.349668973179E-01 1.829537158572E+00 -9.050337708785E-01 1.137461798158E-01 -6.442844330967E-01 6.161874642367E-01 -5.459727593031E-01 7.321238662436E-01 -1.712647324731E+00 -1.239407578231E+00 9.881276718642E-01 -2.791720826860E+00 -2.052547255952E+00 1.391226122937E+00 -6.788411504112E-01 6.497386501215E-01 3.090661687257E-02 1.342259811980E+00 8.282364594612E-01 -8.512252749300E-01 -2.779207238323E-01 1.060206065245E+00 -5.769433283935E-02 1.680293924023E+00 8.449674782204E-01 1.095393589381E+00 -1.117122442785E+01 -5.037519080763E+00 1.055488170057E+01 -2.079184001838E+00 -1.237971975285E+00 -9.557339871912E-01 8.666658841428E-01 1.544499400233E-01 1.441622970764E+00 -1.121453658113E+00 -1.364210042428E+00 -2.344340017489E+00 -5.078866999491E-01 1.211788672449E+00 1.416865458583E+00 -6.813113252309E+00 1.630216127703E+00 1.129741801916E+00 2.333571955604E+01
 9.249821438864E-02 -5.408144446357E-01 -5.450622623637E-02 -3.588930850303E-01 1.202300756053E+00 -2.258242653343E-02 5.296582385064E-01 2.635322596448E-01 -3.409322305859E-01 5.811202268437E-01 -4.686006305000E-01 5.007841338750E-01 1.177433958928E-02 -1.411475904820E-01 6.320656484644E-01 -6.485581014203E-01 -1.895728933638E+00 1.170976507522E+00 9.433489782017E-01 -3.184780007493E+00 -2.215941855952E+00 1.122549804371E-01 6.206585235020E-01 4.455538014690E-01 -2.188386698121E-01 -6.348119119165E-01 -1.222053407093E+00 -1.562090636021E-01 -2.919505445695E-01 -3.164634472376E-02 2.011515923889E+00 1.208602107303E+00 1.037423057235E+00 -8.606386630138E+00 -6.164083741951E+00 9.981466133458E+00 -1.157111305474E+00 -1.179855930092E+00 -1.014882705900E+00 1.415683280437E-01 6.007438008313E-01 2.828483202521E-01 -1.261313774170E+00 -6.666364122925E-01 -1.256005754198E+00 3.670225918849E-01 -1.249715395068E-01 -7.001969337949E-01 1.568574702998E+00 7.436251812926E-01 -1.652199172215E+00 6.433256790082E+00 2.169350863969E+01
 -5.458605386545E-01 1.536459118671E-01 -4.804606095759E-01 -7.944362186521E-01 4.935445547869E-01 -3.109746095475E-01 1.387175653880E+00 -1.147507690593E-01 -1.814501861353E+00 8.757119939104E-01 7.076466954971E-01 -4.340070770192E-01 -4.915254448231E-01 1.389033255301E+00 -9.964005889245E-01 1.863599260828E+00 1.781418446801E+00 -4.085584848672E+00 4.122972339692E+00 3.124216464579E-01 -8.200616103830E+00 1.840585858505E+00 -1.876901756417E+00 -9.896573377703E-01 -5.339478440401E-01 6.634553096017E-01 -4.039660134609E-01 -2.182647746300E-01 -3.321794843427E+00 -5.048038698444E-01 -2.058465466848E+00 9.054672516625E-01 -1.950554340372E+00 1.093729196036E+01 4.819156500963E+00 -1.253278750466E+01 -3.091852219916E-01 4.254440941869E-01 6.671910985252E-01 1.023476245766E+00 -5.360478333699E-01 7.549853768795E-01 -8.959774006293E-01 1.383995487313E+00 1.709114265570E+00 -8.179844536764E-02 3.601190807646E-02 8.165552009114E-02 -5.379805845235E-01 -3.886550213485E-01 -1.318921332821E+00 -1.436946392456E+01 -6.756725853923E+00 3.009066809673E+01