#BIOSYM hessian 1
@Type: Hessian Update
@Units
 distance: 	A
 energy: 	Kcal/Mol
#header
@natom 14

#label
L1      L2      L3      L4      L5      L6      L7      L8      L9      L10     L11     L12     L13     L14

#element
Li Li Li Li Li Li Li Li Li Li Li Li Li Li

#matrix
42
 1.733741496120E+01
 -6.049607212783E+00 1.142732304546E+01
 -1.100515059007E+00 3.484446582073E+00 1.062129703901E+01
 3.436498336976E+00 -2.358461063234E+00 3.934276801214E-01 1.603067881634E+01
 1.766793626990E+00 -4.761495286623E+00 1.840285386660E+00 6.462152148519E+00 1.265119746548E+01
 1.455393169460E+00 4.544129035994E-01 -4.468057982915E-01 -1.419946851129E+00 -2.233921614242E+00 4.578088209184E+00
 1.285248957781E+00 4.395206661544E+00 2.116769636550E+00 -6.242784759073E+00 7.592141455347E-01 5.981464696668E-01 2.290069371543E+01
 3.848718120712E+00 -1.419183550526E+00 -1.447674403763E+00 3.420991391969E+00 1.862314976018E+00 -2.414260017956E-01 -5.407085136267E+00 4.501410109666E+01
 -1.950253068846E+00 1.006943301287E+00 1.566113467448E+00 -1.572405905493E+00 1.269300263546E-01 -1.038370443230E+00 -5.500892041432E-01 -1.229148308932E+01 1.137708895447E+01
 -4.190299260500E+00 4.590334279676E+00 9.876530590878E-01 -1.757208606674E+00 -5.870739297364E+00 -1.840884497095E-01 9.029752713600E-01 -1.120269244026E+01 6.332196449678E+00 7.292652515935E+01
 1.952084876528E+00 1.427648221175E+00 2.467283480294E+00 7.240833306781E-01 -2.168437455567E-01 1.353213576747E+00 2.333058635997E+00 -1.862601748088E+00 7.022763868817E-01 -4.581500318548E-01 9.344203472766E+00
 4.473922547901E-01 -6.937723477121E-01 -9.698677063377E-01 1.433066904391E+00 -7.034771889268E-01 1.365822700514E-01 -3.239246094138E+00 -1.190681827727E+00 1.387624287554E-01 6.050330536153E-01 -3.300976825495E+00 1.196742781183E+01
 -2.264629661254E+00 9.041804010099E-01 -8.754210532337E-01 -1.129618766118E+00 -3.229068794460E+00 1.674118954021E+00 6.680913337337E+00 2.582400546314E+00 -9.199324350610E-01 7.459851470704E+00 6.101244525313E+00 -6.886106047923E-01 1.661115115073E+01
 -5.234079213850E+00 4.200072123717E+00 1.220669488783E+00 -3.490910184864E+00 -4.208778193769E+00 1.274344833551E+00 3.218496888645E+00 -4.861953605446E+00 1.023792757093E+00 1.645350165135E+01 -4.691079032297E-02 -5.222516358400E-01 1.232850956547E+01 3.775894654424E+01
 3.631306898458E+00 3.112584049536E-01 -4.793138163164E+00 1.815011266997E+00 -2.289700741891E+00 -1.334774472324E-01 8.076620485766E+00 2.419013523942E+00 -2.249219908399E+00 1.356105340459E+00 2.273639519726E+00 -3.909546156133E-01 6.814101627280E+00 4.128809882744E-01 2.047715332545E+01
 -2.728896509973E+00 -5.143163326273E-01 4.338345278696E+00 5.488638343420E-01 4.711731556065E+00 -2.185828435203E+00 -6.912450196042E+00 -3.048445144640E+00 1.708996302334E+00 -8.548853486881E+00 -4.634937677247E+00 5.211855763463E-01 -1.179368570418E+01 -5.773162515644E+00 -1.250227086463E+01 2.467658426439E+01
 -2.762578148175E+00 -1.540527723157E+00 -3.172761642701E+00 -1.827880453913E+00 -1.137409571741E+00 -1.333486087527E-01 -5.862323148041E+00 -3.106943093278E+00 5.889408769905E-01 8.384973875241E-01 -3.448304813432E+00 1.181521176280E+00 -3.055118882369E+00 4.872901388521E-01 -5.059412373427E+00 2.558762923612E+00 1.205607310662E+01
 -3.331264348701E+00 -1.376758654765E+00 3.446666774882E+00 -1.142437878515E+00 2.200155755008E+00 -3.802616670358E-01 -1.015669790411E+01 -4.599136037961E+00 2.631091915803E+00 -1.811968365179E+00 -3.027471931326E+00 6.602824412455E-01 -8.567749985706E+00 -1.362494932107E+00 -1.532749440649E+01 1.093351356845E+01 6.244309927052E+00 1.778182453298E+01
 2.909123712762E+00 -2.092936575560E+00 9.153296332477E-01 2.608336062101E+00 5.056564618818E+00 3.108273280604E-01 -4.166942685303E+00 -1.939639328499E-01 -4.106814334837E-01 -1.515883786080E+01 -2.985189002172E+00 4.872675192175E-01 -8.066524962735E+00 -7.647455796417E+00 -7.077664055660E+00 1.007828250212E+01 5.560300735853E-02 6.640428052615E+00 3.803585858139E+01
 4.144338470913E+00 -3.262493778648E+00 -3.357679198968E+00 2.326380303433E+00 3.105275197066E+00 1.038360082448E+00 -1.625301020984E+00 2.537492694061E+00 -1.745009750286E+00 -1.395410931268E+01 -1.662909213298E+00 -4.322480790431E-01 -3.363548973423E+00 -7.187893549126E+00 -7.488524525217E-01 2.345942404747E+00 -3.704527382801E+00 1.206927474101E+00 2.466243446217E+01 2.528652979769E+01
 -2.396775779637E+00 -2.807691246405E+00 -7.921407566869E+00 -4.735688630463E+00 -2.521323802330E-02 -2.419106816721E-01 -1.791430673045E+00 -8.239873296316E-01 -3.544457539251E-01 -6.975777245066E+00 -5.384428075598E+00 -2.123119074919E+00 -3.650963148586E+00 -1.539377157287E+00 -2.824154126094E+00 2.939909956733E+00 7.293859917454E+00 4.079498178115E+00 5.462949316273E+00 6.645848577578E+00 2.084316232924E+01
 -8.505797560247E+00 1.023533848734E+00 -2.589051689039E+00 -7.494412238351E+00 -2.755874055346E+00 6.814093265048E-02 -6.654569826350E+00 -1.000112643944E+01 5.245149852431E+00 4.929328984960E+00 -6.522526885872E+00 3.099102021737E+00 -3.277617954401E+00 2.802179759131E+00 -9.711421517591E+00 6.363868610571E+00 9.735759190868E+00 9.725118742349E+00 -2.674643019045E+00 -6.391289111666E-01 1.031823618993E+01 3.999255348779E+01
 9.251102056278E+00 -1.336213113788E+01 -3.127573351914E+00 1.471983559070E+01 1.331426341534E+01 -8.297971183480E+00 -1.943736168112E+01 1.164351154485E+01 -1.959045248784E+00 -3.335948689522E+01 -6.648885051221E+00 -1.523566303124E+00 -2.589922042239E+01 -2.732259850253E+01 -5.756945071020E+00 2.018624976432E+01 3.850276303551E-01 1.193082199333E+01 2.010457744902E+01 1.353033454608E+01 6.484936592933E+00 -4.373727851157E+01 1.849895846106E+02
 -1.150739309133E-01 -3.784726791899E-01 1.029524800531E-01 -2.508112260745E-01 1.220999413001E+00 -1.335860139905E+00 1.963358999717E+00 2.716907291524E+00 -3.283155308866E+00 -3.437617062590E+00 -4.978178056502E-01 -1.795955339973E+00 -1.581540503266E+00 -7.776900316983E-01 -3.583037484777E-01 1.643036115521E+00 -5.582212142807E-03 9.460185715038E-01 6.688935282557E-01 5.830414683085E-01 2.377406646732E+00 -4.909329495778E+00 9.569439765555E+00 9.208264628819E+00
 -6.582922422372E+00 9.145916788596E-01 -1.457394811750E+00 -3.282431952209E+00 -4.200108333975E+00 -1.470310653530E+00 -1.268322128554E+00 -3.022859408308E+00 9.203405447410E-01 5.873395412872E+00 -2.477989271124E+00 2.632381874717E-01 2.822906330859E+00 8.024109270245E+00 2.293218820052E-01 -1.032567610927E+00 2.955285940887E+00 -1.757436380582E+00 -8.417059617821E+00 -5.682579238361E+00 3.684400706613E+00 7.019124903250E+00 -2.185182638711E+01 2.382822435526E-01 4.312845129614E+01
 1.227006857400E+00 -1.557206257516E+00 -1.022015881426E+00 1.342104893192E+00 3.509975992381E-01 1.067123818830E-01 -2.037717102420E+00 2.308199944013E+00 -8.237889460482E-01 -4.025243660215E+00 -5.158952283130E-01 1.125842294127E+00 -1.279827755821E+00 -3.066006344172E+00 -9.979633413022E-03 -1.255545038394E-02 4.951219738785E-01 3.267883751415E-01 5.356277994404E-01 1.298774373251E+00 8.694851937670E-01 -4.682927000159E+00 9.602961804060E+00 1.364812321910E+00 -3.435233123778E-01 6.826227681278E+00
 3.167203953600E+00 -6.789565672362E-01 1.854779881824E+00 2.023345147792E+00 2.739862921674E+00 4.113687442443E-01 -1.229321556645E+00 2.423090177627E+00 -7.073148738990E-01 -2.446308011611E+00 1.824600845759E+00 -2.747820345772E+00 -2.949597607419E+00 -4.572400986813E+00 -2.160975573344E+00 2.401971689163E+00 -8.057158400874E-01 3.264904673249E+00 5.509319161294E+00 2.959959565110E+00 -2.275535258408E+00 -3.801671544932E+00 1.727456118366E+01 4.864780304260E-01 -1.713311280693E+01 -1.164525212818E+00 1.487149960715E+01
 -3.611205010403E+00 1.814294352122E-01 -5.331024472701E-02 -2.327337485919E+00 -4.680850894059E-01 -2.242719482623E+00 -2.119743410446E+00 -1.764026705681E+00 1.499301359404E+00 2.923542593471E-01 -2.869640043462E+00 5.166957559805E-01 -2.387863557570E+00 -1.695992620555E-02 -1.865256436509E+00 -1.018306650788E+00 8.604187733320E-01 3.386522614773E+00 -1.409140304545E+00 -2.261580550273E+00 2.770327852477E+00 7.068801817093E+00 3.653197758944E-01 7.600256983877E-01 6.487818223066E-01 1.585475728194E+00 -1.729056886791E-01 1.031717252089E+01
 -5.122646790624E+00 2.918467530523E+00 3.983388346947E-01 -5.808634687301E+00 -2.686999513158E+00 -3.044000782704E+00 3.754802824763E+00 -1.414268291044E+00 3.619204036682E+00 7.577210392176E+00 5.150110993750E-01 -9.273316576236E-01 5.008033941559E+00 3.632247823558E+00 1.095688348516E+00 -8.333966962166E+00 1.315679055386E+00 5.036100759648E-01 -9.512577207372E+00 -6.767895231428E+00 1.753490413060E+00 8.311285989228E+00 -1.958861383887E+01 1.053409475439E+00 5.374219557956E+00 -4.424080449759E+00 -8.670079303502E-01 7.372514064382E+00 3.106601057984E+01
 1.700029947994E-01 1.060169612531E-01 -5.852438192941E-01 8.529515809684E-01 6.804134630942E-01 4.202100253477E-02 3.384874315020E-01 -1.098150458508E+00 -8.605745017008E-02 -5.206740957329E-01 -1.109531838279E+00 4.147863882946E-01 -1.336529145186E+00 3.876935947534E-01 1.180347307769E+00 3.218493926066E+00 -1.107096997732E+00 -2.605332645450E+00 2.122159314459E+00 9.981310719165E-01 -1.197271715863E-01 -1.155181757364E+00 2.416422626953E+00 -6.297637227739E-01 1.928711283198E+00 -4.218689570809E-01 -2.168845227273E+00 -1.925018685057E+00 -7.312273857250E+00 7.191119062223E+00
 1.212525203374E+00 -8.469966353483E-01 4.616122228480E-01 1.624031858544E+00 1.059878573471E+00 -1.176067731894E-01 -7.415665191564E-02 1.601945115676E+00 -9.326270321679E-01 -4.447273788015E+00 -9.572166982052E-02 6.379353647358E-02 -1.348074869565E+00 -3.118041571890E+00 1.001056445869E+00 1.501957484719E-01 -4.771771486655E-01 1.260130578757E-01 -4.813243965831E-01 -1.569875893655E-01 3.203017074700E-01 -3.140777875813E+00 5.676337545024E+00 -1.234246624189E+00 -5.479060313395E+00 7.893630637471E-02 -2.068122323117E+00 -8.457149451835E-01 -3.473066424362E+00 1.649393207526E-01 1.052167419123E+01
 4.574278620909E-01 -1.376336168306E+00 -8.396449397968E-01 6.128434620213E-01 1.717902033362E+00 -1.474113490397E+00 -2.654178018400E+00 1.831477297077E+00 -6.135920016850E-02 -5.445125569424E+00 -2.357160589845E+00 1.256203595412E+00 -4.328728463168E+00 -5.201466899717E+00 -2.774802565561E-01 4.651144621666E+00 5.181101275862E-02 1.065825797130E-01 1.828489530473E+00 1.098307313695E+00 2.746549713009E+00 1.128365829548E+00 1.202402228852E+01 3.234299507912E+00 -2.542896808162E+00 5.322805870769E-01 1.158948727903E+00 7.522495573582E-01 -3.110786770368E+00 -1.233617942800E+00 2.563948511020E+00 1.032751445095E+01
 1.339642999087E+01 -5.234472042559E+00 5.470191439422E-01 9.166343667918E+00 8.653720280126E+00 7.256560660184E-01 1.032219364541E+00 1.389150749151E+01 -4.429421721930E+00 -2.211354620655E+01 3.209426940631E+00 7.175600716957E-01 -5.378741614521E+00 -2.119421746488E+01 6.562452434010E+00 3.443143057611E+00 -1.003410569576E+01 -7.506489930866E+00 1.028539905196E+01 1.098501596159E+01 -8.833438184017E+00 -2.235521347324E+01 3.459837600104E+01 -2.938249895962E+00 -1.762470145428E+01 1.450352618165E+00 4.741217607069E+00 -7.108255247530E+00 -1.249760452180E+01 -4.638375013071E-01 1.920718698363E+01 1.381745848586E+01 1.446436736896E+02
 2.491053072732E+01 -4.744276542299E+00 -1.528666813577E-01 1.479693808409E+01 7.593116203451E+00 6.375546886913E+00 1.122979028493E+01 3.120941812903E+01 -1.019259675849E+01 -3.549215439434E+01 1.678495207776E+01 -5.365473827457E+00 6.594620493127E+00 -2.294307106105E+01 2.211111079886E+01 -2.312530467373E+01 -1.672925442661E+01 -2.088015569832E+01 -1.591454262038E+00 7.753778551823E+00 -1.664355461325E+01 -6.190086677968E+01 8.282762619184E+01 3.475894900864E+00 -4.858374481971E+01 1.084269963807E+01 2.142800572516E+01 -1.602279324453E+01 -1.818302107066E+01 -1.479399791999E+00 7.185722233554E+00 9.965390566665E-01 5.545801313425E+01 2.076461713483E+02
 -2.589265453656E+00 1.043198037330E+01 6.308692533448E+00 -7.856632748365E+00 -6.505032355238E+00 1.119212020080E+01 1.336643919131E+01 -1.559213030129E+00 -1.143668637592E+00 1.412826186344E+01 6.311686181813E+00 3.400935405279E+00 1.674377259266E+01 1.543426071106E+01 2.828294327472E+00 -6.656878809297E+00 -6.134221887169E+00 -1.030532840881E+01 -1.014794431642E+01 -8.821592906760E+00 -1.172183496904E+01 3.265230561667E+01 -1.460945183647E+02 -1.431284021902E+01 1.243027825815E+01 -8.501210282379E+00 -1.331123755636E+01 -6.350195731870E+00 -9.527064561238E+00 8.369216848827E+00 1.009873990276E+00 -1.047085873417E+01 -6.042127013713E+00 -3.973044677397E+01 1.660493065195E+02
 -2.215773776072E+01 1.850153214003E+01 3.773385870595E+00 -2.407139002328E+01 -2.574395618799E+01 6.899685258970E+00 2.872483121568E+01 -3.264266585905E+01 8.093556745335E+00 8.851752688352E+01 1.466433908463E+01 -1.369810692141E+01 4.442157620949E+01 6.915762677187E+01 -2.352778872258E+00 -3.826927587429E+01 7.184918042727E+00 -3.947520483000E+00 -6.327630350412E+01 -4.682902567865E+01 -2.553461281492E+00 2.984767844943E+01 -1.790880291017E+02 -3.968880893636E+00 4.658580171851E+01 -1.201634526346E+01 -2.397851046535E+01 -9.106556833316E-01 4.222156280319E+01 -1.326498339551E+01 -2.948622619033E+01 -4.020637474594E+01 -1.881640534039E+02 -1.209972475399E+02 7.869267261299E+01 5.447655901797E+02
 -2.003502140510E+01 3.741478385238E+00 1.159798916274E-01 -1.475797906797E+01 -9.347866147037E+00 -1.499640509897E+00 -1.591420977794E+01 -7.093116053618E+00 3.732966467889E-01 -1.681999423761E+01 -7.930837426433E+00 -5.936264607021E-01 -9.757501505573E+00 6.085773265441E+00 -1.414590954865E+01 1.389653052649E+01 1.260110297739E+01 1.630807133470E+01 -9.526107637137E+00 -1.252655947712E+01 8.171745089942E+00 2.707245232216E+01 -7.109250360957E+00 2.395142574668E+00 1.295274879595E+01 -3.661192228441E+00 -3.437800799730E+00 1.113729772465E+01 1.177547692840E+01 -1.629918726821E+00 -4.907737463141E+00 2.350669812860E+00 -3.612733720930E+01 -8.500700876629E+01 -1.715348989866E+01 5.389809781963E+01 1.108253382486E+02
 -3.591395238085E-01 -1.409883230958E+00 -1.806278540872E+00 -6.822502455482E+00 -1.175613023945E+01 1.620601089255E+00 1.231116334567E+01 -4.517752473662E+01 1.340504168039E+01 3.085766338782E+01 1.337898541617E+00 1.951264067493E+00 1.351900004475E+00 -5.099550351234E+00 3.383799633793E+00 -7.535965974961E+00 1.060926011864E+00 -4.922610197857E+00 -1.863940959345E+01 -1.439895277789E+01 -6.819486983418E+00 8.415827935398E+00 -3.574139604636E+01 -4.043053072021E+00 8.528794622721E+00 -3.628100024257E+00 -6.332359864705E+00 1.174502390124E+00 8.011503311997E+00 -7.171036415143E-01 -3.415277014816E+00 -5.904477864944E+00 -2.792404680241E+01 -4.461586043576E+01 5.153244646020E+00 1.047531985246E+02 1.731034035013E+01 1.042177691644E+02
 3.161696803706E+01 -2.092232647822E+01 3.174667395414E+00 3.342573291683E+01 2.916323791688E+01 -2.298576272774E+00 -2.407032960145E+01 6.399201368917E+01 -1.238698319243E+01 -9.501821563972E+01 -5.313066470744E+00 1.266672593483E+01 -2.865232725742E+01 -7.583238092092E+01 1.458827438794E+01 2.348140457909E+01 -2.057293267356E+01 -1.003209572553E+01 6.690831787215E+01 5.463991795644E+01 -1.933642327231E+01 -4.018385959716E+01 1.543846388381E+02 -2.129644539401E-01 -4.297824906406E+01 1.592270241021E+01 2.476264797871E+01 -2.608296507466E+00 -4.354789483283E+01 9.717178011138E+00 2.109539996490E+01 2.598931849980E+01 1.090641687604E+02 1.843166553877E+02 -3.038899165713E+01 -4.838908069297E+02 -1.139093261777E+02 -1.274463559324E+02 7.493413264858E+02
 -3.172570069566E+00 8.558396715792E-01 -3.100557863063E+00 -2.053574116074E+00 -1.537709155262E+00 -1.362032585491E+00 3.535578687870E-01 -9.301580426300E-01 4.493046823033E-01 -5.969808923773E+00 7.956856170461E-02 2.450182177066E+00 -1.439258013618E-01 -6.888901303556E-01 2.678876773476E-01 -5.542606538619E-01 1.108902006804E+00 5.280431903508E-01 -2.139566112358E+00 -1.023079119705E+00 2.526319270604E+00 1.202555128064E+00 -1.736624114704E+00 3.839847818450E-01 2.200700303603E+00 4.311352871485E-01 -1.291005337945E+00 2.776964651019E-01 1.260369444014E+00 -7.490236495862E-01 2.997106843345E-02 -3.707493845488E-01 -1.280940045366E+00 -6.404462310226E-01 1.539222197451E-01 7.173324279651E+00 8.411922428824E-01 1.437962961941E+00 -1.342387491280E+01 9.768478831146E+00
 -5.301555280151E-01 -1.716234160564E+00 -9.460883465104E-01 -1.443369527351E+00 -1.729261780966E+00 -1.614983386916E+00 -3.114415586235E+00 -5.795409497551E+00 -2.448774193476E+00 -1.299217549573E-01 -2.176936336669E+00 3.785393269002E-01 -3.864528285168E+00 -4.517659105105E+00 1.417795782151E+00 2.056397596559E+00 3.220005541861E+00 3.074603982511E+00 -1.023820443030E+00 -1.050449081894E+00 3.327848591601E+00 4.269603633984E+00 3.268437101706E+00 2.725467760722E-01 1.894503430593E+00 2.779346235989E-01 -6.488194633695E-01 1.438578322401E+00 6.078925518305E-02 4.174912636563E-02 -4.076519875739E-01 8.377720439128E-01 -3.679284237812E+00 -1.106219953828E+01 -5.766766309921E+00 1.350546856802E+00 1.095746987280E+01 3.334673595826E+00 -2.006788034478E+01 9.595097942695E-01 1.175310411058E+01
 -2.283307735122E+01 8.227839722884E+00 -1.037041899921E+01 -1.591719865006E+01 -1.562933619172E+01 -6.918139100862E+00 -1.813318569902E+00 -3.110732716601E+01 7.283551410358E-01 3.470968028979E+01 -7.861486887573E+00 -4.976303342685E+00 1.691616564400E+00 3.232380469523E+01 -1.221773059409E+01 -1.672624875878E+00 1.839740610365E+01 6.988907770595E+00 -2.854624178427E+01 -2.594438699802E+01 1.928355521720E+01 2.640230288657E+01 -3.690606674151E+01 1.402013146000E+00 2.857110860503E+01 -5.708171700953E+00 -1.635389477862E+01 7.953544694900E+00 1.755080959501E+01 1.378339161410E+00 -8.601474296839E+00 -4.216770533945E+00 -5.466625713468E+01 -1.174539319230E+02 -2.356590346716E+01 1.722868845918E+02 9.008122607540E+01 5.489739003966E+01 -3.951571391075E+02 7.428388335082E+00 1.954219953047E+01 2.985918280297E+02

