#BIOSYM hessian 1
@Type: Hessian Update
@Units
 distance: 	A
 energy: 	Kcal/Mol
#header
@natom 19

#label
L1      L2      L3      L4      L5      L6      L7      L8      L9      L10     L11     L12     L13     L14     L15     L16     L17     L18     L19

#element
Li Li Li Li Li Li Li Li Li Li Li Li Li Li Li Li Li Li Li

#matrix
57
 7.368029402027E+01
 -5.350006887335E+01 1.652087190101E+02
 3.274032153635E+01 -1.123979159602E+01 3.273884067160E+02
 1.103170247034E-01 -6.167159864281E-02 5.101170354834E+00 1.613498963182E+01
 -5.497115922558E-02 -5.282870737030E-02 -8.806332663162E+00 -4.066039589467E+00 2.108430804619E+01
 -7.475799862545E-01 -4.907242213898E+00 -2.290441123535E+02 -7.596024279527E+00 1.434113243177E+01 3.456892780917E+02
 4.487534178363E-01 -4.541714416694E-01 -8.717887581019E-01 -2.765959742947E+00 -9.402049594436E-01 2.117394743497E+00 1.355195370678E+01
 1.012952721862E+00 -9.179389286375E-01 -2.437128520319E+00 -1.114756060333E+00 -4.703860347323E-01 2.308707357333E+00 -3.341654373959E+00 2.092717365659E+01
 1.337825950668E+00 -1.125561586168E+00 2.380486004649E-01 1.284322550404E+00 4.007621439262E-01 -8.162194027861E-02 -2.261860740461E+00 1.662399571266E+01 3.192294476557E+01
 2.106005188011E-01 -3.523889723822E-01 -8.042702278405E-01 2.655704766086E-02 -4.510277506055E-01 -2.056076335278E-01 -7.822127724790E+00 5.897303628373E+00 7.507821983856E-01 1.805514932376E+01
 6.864927176188E-01 -6.610932191743E-01 -2.651843418472E+00 -5.808686948967E-01 -8.281220091665E+00 4.714771862920E+00 6.896929178490E+00 -2.704877586539E+00 -7.957160922041E-01 -2.196847021116E+00 1.626551128226E+01
 -2.758853901545E-01 1.545858088919E-01 3.711822332830E-01 2.023601023423E-01 2.778283069615E+00 -1.688151164647E+00 4.952460829804E-01 -6.633996057300E-01 2.899623995588E-02 -3.395579254260E+00 -2.429779661397E+00 1.861268371123E+01
 -5.087255012266E-01 5.832447386306E-01 2.283083754263E+00 -4.974766004921E+00 1.072212672824E+00 -3.200436663121E+00 -1.384004773997E+00 -1.081081330969E+00 2.113051977164E-01 -6.680208165134E-01 -2.042137995574E+00 3.599938235382E-01 1.191063952147E+01
 1.591404874621E-02 1.414444544445E-01 1.132510850525E+00 1.277079873135E+00 -2.523829828709E-01 1.006408220247E-01 6.234469486530E-01 2.719214735805E-01 -1.889465345524E-01 4.201553418535E-02 6.806910824083E-01 -2.010630703353E-01 -1.568208636713E+00 1.786219325877E+01
 -4.806094090362E-01 3.802802586753E-01 4.433967270710E-01 -1.982677350238E+00 5.035172418987E-01 -1.309791254860E+00 -1.632343506316E-01 -1.478206158142E-01 1.243016562302E-01 -8.664246363521E-02 -3.129923920960E-01 4.336072782488E-03 2.480410100374E+00 3.119894598395E-01 1.905746748431E+01
 -1.072182197907E+00 9.528102179489E-01 2.607255152690E+00 -8.976553623564E-01 -9.942484199070E-01 -2.423085228409E+00 -5.657050433083E-01 -6.527501227987E-01 5.646456796082E-02 -2.769537002702E-01 -8.214712545245E-01 8.813203269868E-02 4.874016342059E-02 2.591222353397E+00 1.564995022454E-01 1.618910724156E+01
 -1.334857826624E-01 4.696686682974E-02 4.361291932036E-01 -9.339275996064E-01 -1.419423427052E+00 -1.188922890150E+00 -9.878555781751E-01 -5.892550513845E-01 1.943162196506E-01 -2.725370921139E-01 -1.291815829650E+00 3.050821808972E-01 4.052918476627E+00 -1.045867250629E+01 -1.272823769032E-01 -4.889936942306E+00 1.585895609566E+01
 1.128584372308E+00 -9.780133567307E-01 5.277306968870E-01 -5.279474006276E-01 -7.690600847668E-01 -5.189364061080E-01 -5.301079927635E-02 -1.088937620197E-01 -3.069943113948E-01 2.307715597022E-03 -7.297914009047E-02 5.809024814978E-02 1.710633182257E-01 -4.218734602492E-01 5.045052465974E-02 -1.492883063783E+01 7.270607978148E+00 3.270922684886E+01
 5.426990377228E-01 -5.847377701026E-01 -4.470359404998E-01 -3.127562087559E+00 4.511409561067E+00 2.150239553265E+00 6.099449472201E-01 2.766539868689E-01 -3.934054418671E-01 3.178860771082E-01 9.490908948461E-01 -1.412244627169E-01 -9.691077443524E-01 3.214663576890E-01 -1.755090153760E-01 -4.047080273321E-01 -5.219159342430E-01 -1.784344604516E-02 1.620726993922E+01
 -6.212674061729E-01 5.600939739726E-01 1.060648866629E+00 4.538093256030E+00 -6.566463580750E+00 -4.010680934888E+00 -5.281353656681E-01 -4.536574279855E-01 2.236607404536E-01 -2.499483003856E-01 -8.760608783274E-01 1.361827670171E-01 8.937384010148E-01 -3.137494936204E-01 7.719831175573E-02 1.131950360582E-01 6.220343608029E-01 3.057975483302E-01 1.426850685343E+00 1.481988030697E+01
 -1.476604152188E+00 1.067882928761E+00 1.198745663207E+00 1.667299276137E+00 -2.391466060162E+00 -3.240123607414E+00 9.255279392107E-02 1.423711554127E-01 2.894770166785E-01 -9.128019877591E-02 -9.697495962605E-02 -3.312785284971E-02 1.028248060409E-01 5.264534315368E-02 -5.956351237698E-02 -1.653831674212E-01 -8.147817919014E-05 2.411573476852E-01 -5.072339999542E+00 5.743460907795E+00 2.703363037734E+01
 -1.588045009004E+00 2.045046866926E+00 -7.430415393253E-01 -8.484017291632E-01 8.073742457110E-01 8.863203971951E-01 -8.520839746026E-01 -5.489261798106E-01 1.381820387959E-01 -6.893831516799E+00 -2.619794043787E+00 7.705246287170E+00 -1.434782447624E-01 -2.754001721137E+00 -3.261596076049E+00 4.494781388228E-01 7.381689575711E-01 8.976796496731E-02 -6.406545248189E-01 3.925051964626E-01 6.196340321953E-03 1.228903101906E+01
 1.728641975050E+00 -2.540897903486E+00 -3.241026596263E-01 8.257184737780E-01 -1.103542831920E+00 -6.554785182283E-02 8.011148424988E-01 6.047571483436E-01 -1.478913164477E-01 -1.247365536316E+00 7.867046438918E-01 1.512376147952E+00 -3.447437246752E+00 -3.528119839064E+00 -6.016410507327E+00 -4.145510054694E-01 -8.009580577083E-01 -2.323196301078E-02 5.018803213036E-01 -5.706095150217E-01 -2.331065002860E-03 1.067470535956E+00 8.678912063422E+00
 -4.804450379536E-04 6.195279516404E-01 -1.881099901750E+00 4.234609270738E-01 -5.204183280153E-01 1.414835876301E+00 5.776946625424E-02 -4.643227877520E-02 -2.390068347791E-01 7.567955755538E+00 1.899120450885E+00 -8.521698015523E+00 -3.545690232285E+00 -5.814827398526E+00 -8.466736767606E+00 7.678018781714E-02 -1.742815950740E-01 -1.788046088176E-01 7.833797844005E-03 -2.773925775305E-02 1.916559292892E-01 -1.727653888143E+00 3.606189152542E+00 2.183889494449E+01
 -8.374514915522E+00 -1.980389786887E+00 -9.669530309090E-01 -1.221077610392E+00 -7.213996715950E-01 -1.151137770891E+00 -1.422004273000E+00 -1.023640795607E+00 4.353522054130E-01 -5.159823130023E-01 -2.014239384027E+00 3.911388416612E-01 2.073338907050E+00 -8.211829170796E-01 2.374416095996E-01 6.271819620064E-03 2.588251725211E+00 2.779235539980E+00 -9.025547875150E-01 9.035404993681E-01 -1.354222191208E-01 1.154910364356E+00 -1.228510695842E+00 -9.517745832331E-02 1.573045320419E+01
 -4.948051221901E+00 -9.486673925599E-03 1.222612849618E+00 -3.145202141947E-01 -3.506267846174E-01 -3.562435481215E+00 -1.023416313012E+00 -6.557696598909E-01 7.634619011908E-01 -3.216972582150E-01 -1.572213881335E+00 2.647894409147E-01 1.698274952067E+00 -2.828386644455E+00 3.500421378915E+00 1.546141136827E+00 -7.587379302036E-01 -3.492710825568E+00 -5.256529104993E-01 6.152855868022E-01 -5.040068183986E-01 6.265442604339E-01 -1.034049862689E+00 1.064798107299E-01 4.400290360080E+00 2.319878679966E+01
 -6.182607408056E+00 1.527022428049E+00 2.400279801119E-01 9.926702747859E-01 3.851529689700E-02 -5.781170782606E+00 -3.387860287713E-01 1.130681135748E-01 1.230674359392E+00 -8.440609256985E-02 -7.025038706180E-01 1.339701796011E-02 6.679768867250E-01 3.030904716100E+00 -5.089926752330E+00 2.279704455012E+00 -3.484622257745E+00 -7.788573638602E+00 -8.036627158784E-02 1.166410552914E-01 -9.585946543356E-01 6.385608896885E-02 -2.868577454838E-01 3.260297395126E-01 5.564804428321E+00 2.771816845014E+01 6.116074515453E+01
 -5.752020746272E-01 2.736901972951E-01 4.427817198169E-01 -6.618743612220E-02 -5.683959866351E-02 -5.829972087907E-01 -2.165840315629E-01 -8.044623071332E-02 2.031072380345E-01 -1.470369698167E-01 -3.726236975854E-01 5.674706916817E-02 3.621327364416E-01 -8.330897389205E-02 6.528927775568E-02 -1.439233827788E+00 7.450559473029E-01 -2.266887910913E+00 -8.333651858602E+00 -2.288655270757E+00 9.766074378257E+00 2.729569066784E-01 -1.435539416647E-01 5.676829730270E-02 -3.200970481002E+00 2.792206614688E+00 5.088147252138E-02 1.462834260211E+01
 -4.576571326988E-01 -1.086952711844E+00 1.702504459788E+00 -8.849161093851E-02 -1.700676633819E+00 -4.942444277802E-01 -1.574905598519E+00 -1.190880423056E+00 2.187198802806E-01 -6.316155574629E-01 -2.205886768645E+00 4.561467165536E-01 2.257566579160E+00 -8.768059072341E-01 4.220295811481E-01 1.536174906803E+00 1.218144453633E+00 8.647801689184E-01 -3.488715161617E+00 2.538032129394E-01 2.934893836722E+00 1.354714002078E+00 -1.271066857307E+00 -2.218145106550E-01 4.970317264133E+00 -2.306255386186E-01 7.578975234298E-01 8.447941299108E-01 9.682819530779E+00
 6.786976878191E-01 -1.543786868796E+00 -1.857570265531E+00 1.206969512673E-02 7.397389674433E-01 1.449202930963E+00 9.780037463078E-02 1.657342902148E-01 -1.249313458996E-01 1.224691546629E-01 2.176796034887E-01 1.999363325464E-02 -2.952406074786E-01 5.533033817693E-02 -4.702562706271E-02 -2.453665148169E+00 7.832751375467E-01 -3.427515034320E+00 9.973565626171E+00 2.771249064119E+00 -1.164137430089E+01 -1.417406098800E-01 1.555620123059E-01 -1.175596225647E-01 7.205887714192E-02 -2.872566833242E-02 3.891117361906E-01 -5.362678784198E+00 -2.030963590291E+00 1.999262761888E+01
 -1.859900170474E+00 3.027491599406E-02 -1.315674219417E+00 -1.899305890295E+00 6.628822067883E-01 4.969005134887E-01 1.365389557785E+00 1.181552530599E+00 -3.341484361029E-01 5.412449978389E-01 1.951678752068E+00 -4.119669648381E-01 -1.981028503924E+00 7.669396629172E-01 -3.397742416767E-01 -7.449596695758E-01 -1.324645595937E+00 -1.208042217166E-01 -1.879855288606E+00 -4.815742388736E+00 -5.409718797886E+00 -1.129551655675E+00 1.157372925109E+00 1.927078197763E-01 -2.049702950822E+00 -1.592001733502E+00 -6.827874272221E-01 -3.457465256194E-01 -2.200406429937E+00 2.024232172428E-01 1.081496806014E+01
 1.049211583382E+00 -2.786776768793E-01 -2.790232060515E-01 5.338615599226E-01 -2.094470256083E-01 8.472488345740E-01 -3.447669929467E-01 -2.228585680871E+00 2.584973489506E+00 -1.352698064335E-01 -5.685555668842E-01 1.189881717450E-01 5.627760216983E-01 -2.453480775373E-01 1.357150513922E-01 3.259712062652E-01 3.607046788199E-01 -1.464836896568E-01 -4.234933891356E+00 -5.302069473454E+00 -7.570016383496E+00 3.836700596949E-01 -3.293421572715E-01 -1.102615480661E-01 6.487225362825E-01 5.617893464071E-01 4.320876257932E-01 1.094102102767E-01 6.274382182469E-01 -1.322621534054E-01 2.032423994796E+00 1.234973389689E+01
 1.605152952378E+00 -1.085297753122E+00 -1.939881519680E+00 -8.856458771589E-01 2.788574082197E-01 8.844053136751E-01 1.740755138524E-01 2.848019284520E+00 -3.611343089383E+00 1.570841759956E-01 5.994714170064E-01 -1.307682250057E-01 -5.168414735018E-01 1.235560374372E-01 -6.603491218136E-02 -1.751422842487E-01 -3.213699806019E-01 -1.149114998951E-01 -5.183195716488E+00 -7.906944200216E+00 -1.044679437569E+01 -2.584116624176E-01 3.090885794385E-01 6.748920055578E-02 -4.603013680892E-01 -1.752577859117E-01 2.731947599429E-01 -6.827427281749E-02 -5.336138734700E-01 -4.965567806460E-03 3.261243446454E+00 3.567410051869E+00 1.945424177656E+01
 -8.690493684151E-01 -2.668833400188E+00 -2.435439665700E+00 -2.516022635097E-01 -9.948514201545E-02 3.405820359808E+00 6.229533661978E-01 1.739206620386E+00 1.503287895857E+00 -9.106202170533E-01 2.088316730508E+00 -2.186508646436E+00 -1.680496799581E+00 5.888578995323E-01 -2.721126519207E-01 -7.509048805835E-01 -1.001185822002E+00 -2.150546232864E-01 7.578561289124E-01 -6.467278778184E-01 6.899478777265E-02 -8.586589649236E-01 8.283282484811E-01 9.960392144085E-03 -1.602900134360E+00 -1.403207210757E+00 -4.876257443668E-01 -3.421615658438E-01 -1.912861255089E+00 1.827788845361E-01 1.351801277326E+00 5.658755391253E-01 3.614281308730E-01 1.758421565846E+01
 -2.048050700268E+00 -2.191783032714E+00 -2.162249049457E-01 -2.607979890543E-01 -1.614443806793E-01 7.132379914309E-01 1.640084384698E+00 -6.507133001213E-01 -3.194179844808E+00 6.944175969405E-01 1.082484676532E+00 2.861641206923E-01 -1.215087028061E+00 5.175219802416E-01 -2.092265636214E-01 -5.055231859653E-01 -8.100586919231E-01 -3.603460917911E-02 5.724590940049E-01 -5.224450681466E-01 -6.523374303864E-02 -6.873578347791E-01 7.060685370173E-01 8.892971013323E-02 -1.297346498978E+00 -1.174920773940E+00 -7.428035729296E-01 -2.255752956685E-01 -1.388192173749E+00 1.730666845626E-01 2.242699641978E+00 -4.114842155262E+00 2.125675450997E-02 4.615185449403E-01 8.522883449867E+00
 -3.661351920997E-01 2.196414465539E+00 -1.055795012043E+00 -1.922426879984E-01 -1.809212086984E-01 -1.262381331651E+00 1.929950268933E+00 -2.871674233636E+00 -6.745891248545E+00 -1.900709504496E+00 5.751928587109E-01 -2.691428356780E+00 -5.698229780659E-02 1.435486992341E-01 -4.601259815559E-02 -1.749954658797E-01 -1.278357986757E-01 3.251932634396E-01 1.582956874874E-01 -6.921084186168E-02 -2.875893077499E-01 -8.278710855097E-02 1.800438064427E-01 1.094733233137E-01 -3.832620143610E-01 -6.134058248122E-01 -1.110348719134E+00 -5.931983465610E-02 -8.483693888249E-02 1.795809780823E-01 1.607312957437E-01 -2.757235165758E-01 1.035310007560E-01 -1.498139232227E+01 2.934949694078E+00 2.772172450740E+01
 4.973449106242E+00 -3.415469658221E+00 1.447030657150E+00 -6.197068123632E-01 8.502857704539E-01 7.855563076342E+00 -2.651513867900E+00 -3.379455912984E+00 -2.585919555601E+00 -1.112632168404E+00 -3.499185453177E+00 7.967773683706E-01 1.982102019159E+00 4.514545324580E-01 2.187135537029E+00 2.116164881941E+00 -2.749492620182E-01 -1.099244903576E+00 -2.552316485331E+00 3.074755571550E+00 2.386175395362E+00 1.853191103461E+00 -1.195299187938E+00 -1.305973676628E+00 3.006130552663E+00 3.862957346253E+00 5.316464505632E+00 1.781177892105E+00 2.896915963492E+00 -1.657661022702E+00 -2.690341557064E+00 -5.289223340936E-01 -1.636597948203E+00 -3.980323050780E+00 -1.314425732990E+00 2.000525410052E+00 1.312202603209E+02
 -8.244450445873E+00 5.661364436666E+00 -2.449293739971E+00 1.049625197558E+00 -1.653896721908E+00 -1.619388082506E+01 1.537886350516E+00 4.157729050516E+00 3.118871238737E+00 1.581983179282E+00 4.167330984450E+00 -1.539396962475E+00 -3.826630886388E+00 -6.617044608399E-01 -2.743445900011E+00 -5.646367555526E+00 -1.508066483650E+00 3.539707746679E+00 3.699438449911E+00 -4.464109423684E+00 -3.901157553020E+00 -2.559317687284E+00 1.532189945297E+00 1.964277236651E+00 -4.133376252732E+00 -5.785566822681E+00 -8.380228212963E+00 -2.748500673728E+00 -3.910392310278E+00 2.680093822033E+00 3.646426444842E+00 1.008564104763E+00 2.434282302008E+00 5.943352378011E+00 1.714793828057E+00 -3.301624632766E+00 -1.143004428064E+02 2.486936938824E+02
 5.142299375254E+00 -3.684729902644E+00 -4.642691882893E+00 1.289636018605E+00 -6.223215607796E+00 -1.079554947346E+02 -1.655173776716E+00 -1.331516078977E+00 -1.648695713059E+00 4.144718212244E-01 -1.170408586418E+00 4.581332443501E-01 1.010196692250E+00 -5.432391495477E-01 5.071094245951E-01 1.806650238299E+00 9.820825064992E-01 -1.191307772552E+00 -1.221742761897E+00 1.847802241374E+00 1.569044608240E+00 8.661798850705E-01 -2.649649608708E-01 -6.969167719567E-01 1.536695646836E+00 2.264942568956E+00 4.687593301859E+00 6.498667523888E-01 5.352577465217E-01 -1.443958966079E+00 -5.412926504305E-01 -3.528708426903E-01 -7.526343319801E-01 -1.780233254629E+00 -3.016284509006E-01 2.227118989272E+00 2.695099489245E+01 -4.105644202129E+01 1.749738946351E+02
 6.689676755898E-01 -4.147726716616E-01 -1.301925004553E+00 1.049358984794E-02 -3.169877189028E-02 1.385230842727E+00 1.346893303516E-01 2.762986002154E-01 1.376083138043E-01 -6.343815007322E-02 -6.228563584057E-03 6.153650257032E-02 3.218711186147E-02 -9.185763353808E-04 1.062184363840E-01 -1.103092442281E+01 2.730292814335E+00 1.464299653156E+01 -1.067836352854E+00 1.785898935041E-01 -9.483040134367E-01 3.573979296556E-02 -4.643235135270E-02 -1.077291567078E-01 8.557565695707E-02 1.779564736425E-01 4.888416329756E-01 1.379532427641E-01 3.926822212160E-02 -4.202464566912E-02 -7.405550636797E-02 -1.192641165604E-01 -4.261172327308E-02 2.478356029853E-02 8.314884635305E-03 1.967542505768E-01 -1.045828268464E+00 -4.896534383429E+00 -3.383285919584E+00 1.315146605424E+01
 -4.726876840236E+00 3.632846218786E+00 4.380664942669E+00 3.491363862648E-02 -1.525614655713E-01 -7.015200825577E+00 -1.097425545105E+00 -7.121711070664E-01 1.197306719879E+00 -8.596176347924E-01 -2.576970258429E+00 3.085325191194E-01 2.616844999327E+00 -5.677745037520E-01 3.233018650444E-01 3.027477350874E+00 5.533929906771E-01 -2.849280379570E+00 -1.519294349650E+00 1.387188142237E+00 -1.014528618679E+00 1.289180707378E+00 -1.382347369578E+00 4.388864258049E-01 2.004600316938E+00 2.303202851305E-01 -1.973531242505E+00 4.190854478904E-01 3.030793483833E+00 1.107460737049E-01 -2.523970107702E+00 8.255657711593E-01 -3.682661748163E-01 -1.677937160349E+00 -1.625520822862E+00 -8.386792218390E-01 3.702880219355E+00 -8.597122510649E+01 -2.118784236795E+01 5.110968205959E+00 7.231654379093E+01
 -3.211746024165E+00 2.624271886983E+00 4.112138388504E+00 3.805279640618E-02 -1.893519614938E-01 -5.336313567295E+00 -1.666170077645E+00 -1.274188828331E+00 7.933242222913E-01 -7.707337531505E-01 -2.653975019446E+00 3.785424984846E-01 2.699070334440E+00 -8.462468011940E-01 3.034744620069E-01 1.552257342696E+01 -2.148925324686E+00 -1.929492888015E+01 -2.362553698111E+00 7.928513493110E-01 -2.350352242723E+00 1.455061457490E+00 -1.472020329034E+00 2.311190271097E-01 2.397545340065E+00 1.131278852196E+00 -9.019802111123E-01 3.541449859071E-01 3.113799560725E+00 -1.365962594986E-01 -2.631380673743E+00 9.367569024509E-01 -5.206996244034E-01 -2.070030725463E+00 -1.703796961524E+00 -6.658298633238E-01 5.244004802002E+00 -3.885710129342E+01 -5.970141367505E+00 -1.082730948145E+01 3.250272060812E+01 3.456790011166E+01
 3.778656876436E+00 -2.901701541823E+00 -3.478802192794E+00 -3.217168910010E-02 1.339110156715E-01 5.726485494590E+00 5.926204537282E-01 -4.029669249401E-01 -1.962533563291E+00 6.723664185572E-01 1.874104989326E+00 -2.110067716818E-01 -1.888130895920E+00 3.598583149376E-01 -2.164675157100E-01 7.627046676204E-04 -8.604216135911E-01 -7.480874506177E-01 8.748660583290E-01 -1.514133946685E+00 1.162307021866E+00 -9.065879802033E-01 9.807064904654E-01 -3.363388426796E-01 -1.380073501367E+00 -1.540525553575E-02 1.569620794032E+00 -3.559716935954E-01 -2.199654269049E+00 -1.461735977143E-01 1.821286478132E+00 -5.493972443002E-01 2.556357496408E-01 1.157381061866E+00 1.138598093594E+00 6.042444798169E-01 -6.907507781192E+01 2.693910876240E+01 1.795295146739E+01 -1.925429459414E+00 -7.816631821704E-01 -6.221854301332E-01 6.232218947217E+01
 -2.082183573464E+00 1.508806982129E+00 2.519704608013E+00 -6.596980279319E-03 -1.122982836089E-02 -3.487511393725E+00 -1.123218028592E+00 -1.279402773915E+01 -1.570733070965E+01 -1.777790680550E-01 -6.670154697871E-01 9.857901811018E-03 6.541571528321E-01 -1.211431389747E-01 -2.623198332604E-02 3.825432939727E-01 3.012343482362E-01 2.247784892707E-01 -5.125026520721E-01 -6.209916936654E-01 6.044437800795E-01 3.011152780443E-01 -3.045433247244E-01 2.559109228033E-01 4.112981431752E-01 -1.805311518414E-01 -1.106490840974E+00 -1.999915452870E-02 7.710128648264E-01 6.811266967691E-02 -5.891785717323E-01 3.387321781140E-01 -4.713892194294E-02 -4.726825818810E-01 -4.307229708665E-01 -4.300103209978E-01 1.784635259493E+01 -9.089832451642E+00 -2.319961884759E+00 -5.394610752739E-01 -1.577170573998E+00 -2.037534363645E-02 -1.153738924621E+01 1.639999690362E+01
 -3.043093918587E+00 2.475604271470E+00 4.345843195752E+00 3.214727248442E-02 -1.768832834796E-01 -5.309647639523E+00 -2.607600926260E+00 -1.726393934107E+01 -1.987602353629E+01 -7.448409331710E-01 -2.599148291474E+00 3.710831730144E-01 2.625497992737E+00 -8.222012704816E-01 2.944388483775E-01 1.012962897434E+00 1.538536683677E+00 5.062126851942E-01 -4.810666584880E-01 2.039687610406E+00 -2.261235934734E+00 1.422810800993E+00 -1.419881104728E+00 1.879151680329E-01 2.345868151935E+00 1.165960922407E+00 -7.717911273844E-01 3.515127415496E-01 3.014386420209E+00 -1.585382501292E-01 -2.548633775846E+00 8.977249271037E-01 -5.271672314645E-01 -2.068156491082E+00 -1.643637640459E+00 -6.118926480779E-01 3.041597544086E+01 -1.648201259420E+01 -4.316094910444E+00 9.831571970778E-02 1.121057389912E+00 2.358621404377E+00 -2.336688509844E+01 2.040140877026E+01 3.351948404888E+01
 -2.297859976154E+01 3.628961103159E+00 1.768528931290E+01 -4.668285342237E-02 -8.104671266685E-02 -2.031807233089E+00 -1.413058152963E+00 -1.229844229797E+00 6.302082728619E-02 -6.602026687036E-01 -2.137018061058E+00 3.713901369902E-01 2.140588909508E+00 -6.459677796695E-01 3.687264698652E-01 9.840092820020E-01 1.225634280022E+00 -3.447976963655E-02 -1.049952582044E+00 9.778539547918E-01 1.753382469911E-01 1.295995797823E+00 -1.399141724087E+00 3.696451328503E-02 1.463276407542E+00 -1.845971666734E+00 -5.317629337850E+00 4.104224115421E-01 2.423741612920E+00 -4.340851163877E-01 -2.109703206943E+00 6.004442271228E-01 -6.821595651482E-01 -1.708660495435E+00 -1.168404994096E+00 4.634893386807E-02 3.731844098507E+00 -5.302717300438E+00 1.267962086741E+00 1.413758530591E-02 2.716536818299E+00 2.865840019113E+00 -2.050416142899E+00 7.396898146067E-01 2.833312091450E+00 2.785975719115E+01
 4.736945494895E+00 -1.082797567699E+00 -3.671831945908E+00 -1.006595370391E-01 1.024241306565E-01 4.119621791812E+00 3.274848874079E-01 7.837633137079E-02 -7.496775805457E-01 1.349201988863E-01 6.265921292955E-01 -3.399454910045E-02 -6.613831772696E-01 2.261333752363E-01 1.553066303158E-02 1.669003120362E-02 -4.469790197229E-01 -6.404164542210E-01 9.647009359299E-02 -9.257338479943E-02 5.464418327771E-01 -2.812866094316E-01 -7.257009486994E-02 1.805181314881E-01 -3.667489792295E+00 -1.471415800384E+01 -2.568213709485E+01 2.472676414114E-02 -7.910874244078E-01 -2.177835849157E-01 6.326789991954E-01 -3.038054519087E-01 -8.097554073937E-02 7.088851781295E-01 5.764258676460E-01 4.537646708728E-01 -3.386054098691E+00 5.330944532432E+00 -2.287349324552E+00 -2.084985402580E-01 1.062988280604E+00 2.536017650610E-01 -9.050695364910E-01 5.553966788674E-01 1.676715656967E-01 2.326054551126E+00 1.686399105544E+01
 1.915718494251E+01 -5.562239740058E+00 -1.401356302028E+01 -1.841470463656E-01 4.067053091390E-01 7.197988653139E+00 2.383316902039E+00 1.486697821626E+00 -1.589129743417E+00 9.578096667464E-01 3.633185124969E+00 -5.911407813198E-01 -3.751170532542E+00 1.365710947874E+00 -3.987574362061E-01 -1.006573799152E+00 -2.409099153077E+00 -1.203142773551E+00 1.453643419292E+00 -1.335804303482E+00 9.350239669815E-01 -1.784805254039E+00 2.340626067526E+00 -8.634512631371E-01 -9.181599091412E+00 -2.811466840008E+01 -4.655245664371E+01 -4.173419535970E-01 -4.278515974372E+00 -1.609461085626E-02 3.631579823829E+00 -1.308424669950E+00 5.039240707771E-01 2.990724019995E+00 2.550988989551E+00 1.290948809855E+00 -9.969339356210E+00 1.495100534417E+01 -5.944776070721E+00 -4.795473018851E-01 -1.246383196612E+00 -2.859246077962E+00 6.893129166993E-01 2.583747139316E-01 -2.928540216631E+00 -1.270347058156E+01 2.772088934530E+01 6.202857698519E+01
 -7.069769807708E-01 -3.853217360610E+00 -1.891763002220E+00 2.596830751632E-02 2.835152060432E-02 -1.638825376358E+00 2.864306959128E-01 2.063601436032E-01 2.264425464259E-01 1.024918930638E-01 2.773773134760E-01 -9.831024116978E-02 -2.975796331144E-01 1.654000042190E-01 -6.886988107390E-02 -1.540337680692E-01 -2.315162601084E-01 2.469012218137E-01 2.345745919200E-01 -2.197896388064E-01 -1.918432109602E-01 -1.987421469399E+00 2.481251450036E-01 -2.187840071520E+00 -4.637442315890E-01 -2.204853077423E-01 -3.265856086660E-01 -6.107079308824E-02 -3.251692077640E-01 1.569672654490E-01 3.166928612895E-01 -8.757539238123E-02 1.970649769157E-01 -1.171755856483E+01 8.103702731466E-01 1.431297975208E+01 7.785979970299E-01 -1.451135462429E+00 7.111812606545E-01 2.489999513652E-02 -9.630906421139E-01 -7.354135906855E-01 7.478917383181E-01 -2.959422276509E-01 -6.766150799006E-01 -3.080654738645E+00 -2.149221770563E+00 1.000061649348E+00 1.645555544582E+01
 1.126252568954E+00 -7.812902137560E+01 -4.841834864419E+01 4.315019638297E-02 1.644609044303E-01 5.838041656767E+00 1.401181572771E+00 7.695634443746E-01 -1.085345649564E+00 7.755792729681E-01 2.112268395993E+00 -1.859983139556E-01 -2.321131148156E+00 6.406782519840E-01 -7.120921525119E-02 -4.326858077631E-01 -1.285509179539E+00 -8.496768453513E-01 9.541422982914E-01 -7.682133344770E-01 1.077436683980E+00 -1.526807996772E+00 1.707940727276E+00 -8.066143438117E-01 -2.101551843094E+00 3.731353212877E-01 2.669757431494E+00 2.903119226745E-02 -2.905099293451E+00 2.152148529250E-01 2.390524501716E+00 -1.233573787497E+00 5.744042830295E-01 1.600136067094E+00 1.262678949411E+00 2.543186756095E-02 -9.429108450090E+00 1.454437192353E+01 -6.536953040724E+00 -6.725194410335E-01 6.509609966211E-01 -8.647749567066E-01 -6.319432113951E-01 9.274844552135E-01 -9.668368059272E-01 -4.672825382029E+00 -4.002288627440E+00 4.438925218261E-01 6.947424730024E+00 7.567729483232E+01
 2.152499707076E+00 -4.839925086598E+01 -3.097490244250E+01 -2.062766405290E-02 2.270873853549E-01 6.093201246472E+00 1.719097361873E+00 1.155836695554E+00 -1.088044772658E+00 8.351774946362E-01 2.646576951756E+00 -3.342565785777E-01 -2.787062474004E+00 8.545859869211E-01 -2.323118546490E-01 -7.814728879327E-01 -1.593418306534E+00 -8.468404919073E-01 1.160766095877E+00 -9.700594665790E-01 8.728448394826E-01 -3.920807880658E+00 1.593277700413E+00 -3.699340105128E+00 -2.451287567195E+00 -5.330945807329E-01 1.972470036012E+00 -2.227307322351E-01 -3.331494903932E+00 1.935051597514E-01 2.780241667576E+00 -1.173433512245E+00 5.475283308659E-01 1.618421815422E+01 8.357263854922E-01 -1.681356089027E+01 -9.742164236956E+00 1.495114325820E+01 -6.338446909250E+00 -5.056633633435E-01 -6.253173456005E-01 -1.926802117563E+00 2.852293244188E-01 4.057096093047E-01 -1.996294868654E+00 -2.963103477627E+00 -1.036410749856E+00 1.875611580525E+00 -8.721780416452E+00 4.598461490179E+01 4.926447610124E+01
 -3.748207402796E+01 5.659823573647E+01 -4.987470481013E+01 -1.433948109721E-01 2.635926871514E-01 6.868757096079E+00 5.860625091494E-01 -7.585608583201E-02 -1.478693041362E+00 2.972661442609E-01 9.755732072803E-01 -6.550431824294E-03 -1.146308194584E+00 4.276852619171E-01 2.032325357032E-01 3.075163564607E-01 -7.744332251435E-01 -1.228208895865E+00 2.104116839903E-01 -1.143695387638E-01 1.375532501397E+00 -5.080228454606E-01 6.765675328388E-01 -7.021920946298E-01 -6.545921580555E-01 9.201833329138E-01 3.210344071572E+00 -1.069318642634E+00 -2.574521141591E+00 -2.735682348836E+00 -4.519287837008E-01 -1.832598564804E+00 2.526627580289E+00 3.174248356166E-01 8.808810470781E-01 1.313262359893E+00 -8.554461374957E+00 1.348958162567E+01 -6.593692932426E+00 -6.878100110179E-01 2.816829330275E+00 1.154483804587E+00 -2.311723562891E+00 1.573060484930E+00 9.775097571363E-01 -1.031137915465E+00 -1.801087389623E+00 -1.984693742139E+00 9.318151383367E-01 -3.327445394493E+00 -2.329757329846E+00 4.082996289517E+01
 5.310114029996E+01 -8.019741585932E+01 7.038976602192E+01 2.010807103850E-01 -3.644083835796E-01 -9.601258399028E+00 -7.096637187830E-01 2.104107883705E-01 2.096293840076E+00 -3.721920438923E-01 -1.204759857651E+00 -2.675595521138E-02 1.450428671142E+00 -5.459631670367E-01 -3.247315885703E-01 -5.192566550165E-01 9.889148387899E-01 1.749750075747E+00 -2.143478267258E-01 7.908981811153E-02 -1.982428504694E+00 6.191963884789E-01 -8.618508579230E-01 1.023697722243E+00 7.482842642470E-01 -1.457496711423E+00 -4.647064417266E+00 -1.504244550996E+00 1.027714930567E+00 -1.330248851666E+00 -2.451717377310E+00 5.156373981592E-01 1.874845430843E+00 -2.933410587083E-01 -1.146537865258E+00 -1.871324020433E+00 1.188415035678E+01 -1.879708311200E+01 9.346588354220E+00 9.827332657023E-01 -4.279668540138E+00 -1.908030694679E+00 3.495886072389E+00 -2.316749634139E+00 -1.650005590373E+00 1.267102258272E+00 2.631916530117E+00 3.175684101996E+00 -1.307260688047E+00 4.962728801307E+00 3.586350619916E+00 -5.144714059314E+01 7.715238153138E+01
 -4.102145004607E+01 6.208659397572E+01 -5.770535848377E+01 -1.996310785093E-01 4.680852076846E-01 9.410541008546E+00 2.044660120993E+00 1.081695780119E+00 -1.741581185351E+00 8.876846669817E-01 3.089129401670E+00 -3.967355252779E-01 -3.289871054887E+00 1.238263238081E+00 -1.207022944777E-01 -5.496287567843E-01 -2.127462717522E+00 -1.344363232948E+00 1.215547557178E+00 -1.026690641996E+00 1.369091825039E+00 -1.744627737953E+00 1.874183531379E+00 -5.961622621461E-01 -2.799834714315E+00 -6.581664557099E-01 2.680767031067E+00 -2.468351486063E+00 -5.822828493222E+00 -4.250666037412E+00 5.896488493643E+00 1.966088970819E-01 -3.988760986656E+00 2.128968730523E+00 2.193038642072E+00 1.460319101355E+00 -1.268381910136E+01 1.942443963840E+01 -8.489659689615E+00 -7.340921043942E-01 3.715288218979E-01 -1.568821124293E+00 -5.581023605042E-01 9.649639977701E-01 -1.701987126770E+00 -3.380181678189E+00 -1.250080545352E+00 1.727861213310E+00 1.273288894085E+00 -1.184747321749E+00 4.030486816297E-01 4.294204510397E+01 -6.065063713970E+01 5.985055280867E+01