#BIOSYM hessian 1
#COMMENT: Materials Studio generated
@Type: Hessian
@Units
 distance: 	A
 energy: 	Kcal/Mol
#header
@natom 19

#label
Li      Li      Li      Li      Li      Li      Li      Li      Li      Li      Li      Li      Li      Li      Li      Li      Li      Li      Li      

#element
Li Li Li Li Li Li Li Li Li Li Li Li Li Li Li Li Li Li Li 

#matrix
57        
 5.529776521079e+000
 1.018589898768e+000 1.490110087713e+000
 7.919807638827e-001 1.746692447870e-001 2.012876050866e+000
 4.768627889829e+000 1.034752303982e+000 1.049067276370e+000 5.708318717868e+000
 -7.032450416028e-001 -1.695438061305e-001 -2.987624526041e-002 -5.383063060910e-001 4.937812201956e-001
 1.144668482513e+000 9.630586865974e-001 -4.646150972456e-001 1.062783050558e+000 -1.396841518163e-001 2.545755623493e+000
 2.441237488990e+000 1.223263568486e+000 -3.694658344636e-001 2.214564193188e+000 -3.720562078868e-001 1.737137811663e+000 5.183406525227e+000
 2.016524973960e+000 5.071235987452e-001 5.729156441856e-003 1.870597973702e+000 -3.755635550840e-001 8.302333877916e-001 1.140370320859e+000 1.433127824622e+000
 2.251140641226e+000 -7.059697189178e-001 9.008944358911e-002 1.930211997620e+000 -5.077433928722e-001 -2.947366144984e-001 -1.118063939913e+000 1.446083003370e+000 6.124264915839e+000
 -4.730618311802e+000 -9.135885279720e-001 -7.668790721801e-001 -4.783065091404e+000 6.627405700354e-001 -1.176297755735e+000 -2.573836320145e+000 -1.983052183880e+000 -2.605734036591e+000 5.644017286659e+000
 -5.384831740975e-001 -2.319505702270e+000 -3.736116652300e-001 -9.662680708763e-001 -3.220265973003e-001 -1.711238834488e+000 -2.295088970087e+000 -2.541953674542e-001 3.594990319422e+000 4.174298448334e-001 6.118141395065e+000
 3.497138033373e-001 -1.509251895142e+000 -9.048691346661e-001 -2.848792651287e-001 -4.416717680258e-001 -4.623308093296e-001 -2.377098587565e+000 1.275238679637e+000 6.506154709679e+000 -9.727105543955e-001 5.642823378301e+000 1.195832776797e+001
 -5.222468919606e+000 -1.268016167624e+000 -1.035540556619e+000 -5.297080185163e+000 7.578701682692e-001 -1.282425178723e+000 -2.918290036425e+000 -1.975754564700e+000 -1.938037852707e+000 5.207649204372e+000 1.113290361422e+000 5.402391974156e-001 6.736050560003e+000
 6.435047186335e-001 2.714283139753e-001 -9.956772362498e-002 7.444727865340e-001 -1.404185470845e-001 4.520953625800e-001 7.863440818747e-001 3.145684081766e-001 -1.035505947680e-002 -7.250491450233e-001 -6.190305184437e-001 -1.583890682124e-001 -6.289248998854e-001 6.073332010210e-001
 -4.960721335977e-001 -3.341470682887e-001 5.283636018632e-001 -4.335305092132e-001 1.049531815942e-001 -7.389778805710e-001 -1.157647044380e+000 -6.312791332975e-001 -4.708658044461e-001 5.890979128245e-001 3.608713771844e-001 -1.030049255896e+000 6.043414104223e-001 -3.423046453076e-001 1.874378946665e+000
 -2.697631741330e+000 -2.790677985240e-001 5.191688424338e-001 -2.355617222575e+000 3.962557526311e-001 -1.206757330440e+000 -2.991201726395e+000 -1.223501684052e+000 -3.890611932088e-001 2.565401926023e+000 3.487312829640e-001 3.610577227744e-001 2.561537515508e+000 -7.684095570287e-001 1.040722422760e+000 4.385843094053e+000
 -1.457838065879e+000 -8.090750575999e-001 1.161556933865e-001 -1.383958366646e+000 1.582806451116e-001 -9.820101051646e-001 -1.409695101084e+000 -1.002642414608e+000 -6.381152114847e-001 1.681323728167e+000 8.762609022179e-001 -5.198961469416e-001 1.680015016446e+000 -4.923041898994e-001 7.395959872373e-001 1.268610780689e+000 1.357879273183e+000
 -1.544533075641e+000 1.093029973902e+000 -2.363174062740e-001 -1.569649106877e+000 3.969747809060e-001 5.929679659001e-001 -4.813303615720e-001 -2.368604858418e-001 -1.055516916020e+000 1.516864539170e+000 -2.436574281955e+000 4.601754484771e-001 1.742508500983e+000 -1.865472654052e-002 -7.290990062833e-001 1.573582995841e+000 -4.080643662240e-001 4.976212246038e+000
 -2.102182603949e+000 -8.427445051969e-001 -2.140857255164e-001 -1.913261945323e+000 1.965088136633e-001 -1.102725346192e+000 -2.042613826281e+000 -9.211604234043e-001 1.349255001844e-001 1.900287615475e+000 1.444466423972e+000 1.134820411997e+000 2.236043139917e+000 -4.931215329124e-001 5.580302100898e-001 1.662383760423e+000 9.566212546610e-001 3.671174360106e-001 2.282028451578e+000
 -1.377911599160e+000 1.563783583040e-001 1.349371972304e-001 -1.274875924355e+000 2.680576731687e-001 -2.569735820819e-001 -1.496558195328e+000 -5.112510359511e-001 -2.053993062142e-001 1.359229589143e+000 -4.856511992602e-001 3.681957505061e-001 1.572289296511e+000 -3.670609258825e-001 3.158040411512e-001 1.717811848057e+000 3.362509681112e-001 1.604046234198e+000 1.280939299373e+000 2.764147756174e+000
 -2.876920357832e+000 -5.306602636857e-001 -1.279890778853e+000 -2.608672132491e+000 3.420261643171e-001 -3.668096187249e-001 -6.321100117956e-001 -9.664338059894e-001 -1.364157963843e+000 2.582514733807e+000 2.580005010633e-001 1.332094994645e-001 2.711188401632e+000 -2.237534516950e-001 -1.616195160646e-001 8.923814374137e-001 6.676188062388e-001 1.045240466530e+000 7.934579691210e-001 5.040879377367e-001 2.759224636629e+000
 1.492569954460e+000 -1.036545354903e+000 1.000454032677e-001 1.286418155402e+000 -4.883804893126e-001 -8.121538007070e-001 5.308307033244e-001 4.970518869588e-001 1.645237620206e+000 -1.555238403450e+000 2.665476760759e+000 1.240237909102e+000 -1.626295498048e+000 1.456204251835e-001 1.483387296824e-001 -1.617041176240e+000 -9.281946575112e-002 -2.808617482708e+000 -3.614223101811e-001 -1.735704850069e+000 -7.853828903088e-001 3.599041158993e+000
 -2.298379757792e-001 -5.341427167059e-001 2.301947898723e-001 -1.875319600047e-001 -1.926607479204e-002 -6.292900236982e-001 -2.844099994677e-001 -3.345236553383e-001 -2.165404605472e-001 2.879567986127e-001 8.410711284638e-001 -6.019564717223e-001 1.690182927519e-001 -1.065167682577e-001 4.639390351253e-001 -9.648239023937e-003 4.383504240761e-001 -9.873496507743e-001 1.155608658248e-001 -1.086341954619e+000 -1.830833692784e-002 1.075429887380e+000 1.244290259056e+000
 -9.605654924396e-001 1.499044106474e+000 -1.059580757892e+000 -1.081126138182e+000 2.537958419073e-001 1.205094920245e+000 3.024720810907e+000 -1.597979913211e-001 -4.061501799667e+000 1.070835015153e+000 -4.431221537140e+000 -4.523226528184e+000 5.026376302608e-001 5.691423858816e-001 -1.086804496114e+000 -1.350753111599e+000 -8.067893330107e-001 2.219785323124e+000 -1.349895589053e+000 -2.017974343936e-001 1.305097410411e+000 -1.690005280208e+000 -6.989685231752e-001 6.520352088802e+000
 -1.450710291862e+000 -7.615260758937e-001 -4.037864798918e-001 -1.741919087749e+000 7.149992588179e-002 -6.059613122588e-001 -2.196953678886e+000 -3.649807865422e-001 7.752855622576e-001 1.297685089637e+000 1.842774455550e+000 3.058396850076e+000 1.957437245217e+000 -2.767096916565e-001 6.716351191181e-002 1.258499909685e+000 4.307588219268e-001 7.031026597201e-001 1.044798201681e+000 7.328341003686e-001 7.185424637043e-001 -8.657241039369e-001 -1.909990535476e-001 -1.204809914029e+000 2.580470887846e+000
 -6.317035418258e-001 1.982222738174e+000 6.465409370533e-002 -2.707526551181e-001 4.685865387979e-001 1.451180439399e+000 2.267300080263e+000 -5.409287841594e-001 -5.363437079014e+000 9.889165401537e-001 -5.972427607022e+000 -7.796439384986e+000 1.969124454214e-002 3.546106263729e-001 -7.385512468290e-002 -1.928178015420e-001 -3.024216227001e-001 1.700671772605e+000 -1.306810673538e+000 3.037660942333e-001 2.942131228080e-001 -2.601664727308e+000 -4.369228667180e-001 5.419373351417e+000 -1.632891936514e+000 8.181294092010e+000
 -1.267269704708e+000 1.009169381085e+000 6.477091236517e-001 -8.526940127273e-001 4.628955330899e-001 2.104510111682e-001 3.970053084169e-001 -1.303523940514e+000 -5.180445827877e+000 1.666648245982e+000 -3.934154963265e+000 -7.031796595951e+000 7.670625354342e-001 -6.363262115087e-002 8.335208808269e-001 6.781684019057e-001 5.950733238745e-001 8.684493560909e-001 -2.728256923787e-001 4.001115261497e-001 4.356210060119e-001 -1.614927602828e+000 2.178326076480e-001 3.035380575620e+000 -1.277109762282e+000 5.226266527620e+000 5.435699372049e+000
 -2.275298321013e+000 -4.510017240128e-002 6.055858598302e-001 -2.125539446642e+000 5.038490759102e-001 -1.031635532573e+000 -2.603847154419e+000 -1.148754935692e+000 -8.452973863196e-001 2.181638758309e+000 -5.526822898128e-001 -2.349728281876e-001 2.488739476305e+000 -6.773164718225e-001 9.868749893255e-001 2.900430822135e+000 1.078889902526e+000 1.712267669137e+000 1.092014976569e+000 1.764067021139e+000 6.360861547307e-001 -1.951634284500e+000 -9.963887345804e-002 -8.394483289711e-001 8.311079947362e-001 4.288976816879e-001 1.337919615771e+000 3.920809474430e+000
 -6.940885990468e-001 -8.529898291628e-002 8.041234848497e-001 -4.931188646294e-001 2.066562030441e-001 -9.617767081726e-001 -1.455581432824e+000 -7.373613728747e-001 -3.773246978693e-001 7.651750549935e-001 -8.948235753945e-002 -8.843515450128e-001 7.446177321632e-001 -5.048456134899e-001 1.020160375232e+000 1.499566193977e+000 7.611717084255e-001 1.671668001183e-001 7.489329267603e-001 7.888918706395e-001 -1.011657996383e-001 -6.103270242528e-001 2.319545552719e-001 -1.296522796859e+000 -1.558318090401e-001 -7.679304463929e-001 1.180932757546e+000 2.236610380731e+000 3.020807268433e+000
 -1.278011124186e+000 -9.410462715101e-002 -2.356394664344e-001 -1.450918882182e+000 1.833447762711e-001 -2.120908278014e-001 -1.169158734736e+000 -3.533484020386e-001 -1.576098064294e-001 1.536474438994e+000 1.495601461570e-001 3.440336064693e-001 1.661537995357e+000 -1.448237791109e-001 1.537866569152e-002 1.089673183710e+000 2.930284792463e-001 1.152538199461e+000 6.442927505917e-001 7.831990461038e-001 5.806779030025e-001 -8.085484339168e-001 -1.809935802638e-001 5.433222750921e-002 8.470993567729e-001 1.403978593776e-001 -1.350099762325e-002 1.036497354663e+000 -8.188197919171e-002 1.643992266550e+000
 2.168694315353e+000 7.441685699217e-001 4.480777319804e-002 2.015755976205e+000 -2.605361132507e-001 9.522848290578e-001 1.676248538688e+000 9.338403237752e-001 3.556732321625e-001 -2.190423707261e+000 -1.062142027034e+000 -6.988518442807e-001 -2.424603641128e+000 3.749758094132e-001 -3.699992317600e-002 -1.566979667297e+000 -9.036342280182e-001 -5.963795199008e-001 -1.271326074159e+000 -6.702610495843e-001 -1.092137548034e+000 5.886221555408e-001 -1.773202378738e-001 6.364918038376e-001 -9.643432969199e-001 8.513088883696e-001 -7.349047840226e-002 -1.422688089086e+000 -8.875563325123e-001 -7.797313459680e-001 2.039127808947e+000
 1.098112633793e+000 7.447016268942e-002 -3.474057269181e-001 1.076287089507e+000 -2.289748900053e-001 6.838945378732e-001 1.869545930685e+000 4.823228843868e-001 -1.784668785084e-001 -1.118287392551e+000 -9.724693963372e-002 -4.865052886258e-001 -1.428783004557e+000 4.220837969366e-001 -5.443528928588e-001 -1.799710680582e+000 -5.253272133756e-001 -8.511422865282e-001 -8.747731767916e-001 -1.142820789150e+000 -9.278945506782e-002 1.029300666203e+000 1.235086922555e-001 1.089296386697e+000 -7.502469174946e-001 2.624396326846e-001 -2.814237911220e-001 -2.067644172175e+000 -1.760555135301e+000 -6.761923572384e-001 9.915872919788e-001 1.989714824417e+000
 1.767191359000e+000 5.623310673560e-001 -1.201798333593e+000 1.697217838928e+000 -3.433712346194e-001 1.770059445528e+000 3.515714153970e+000 1.226517400645e+000 -2.839641012815e-001 -1.848712315159e+000 -9.708450144194e-001 -5.377703758082e-001 -1.774998939546e+000 9.772069867781e-001 -1.931714368996e+000 -3.255985830299e+000 -1.474761300847e+000 -7.289068976749e-001 -1.909933345995e+000 -1.705850534622e+000 -2.572603751290e-001 1.032860471955e+000 -3.121583656914e-001 2.836686002904e+000 -1.098362659098e+000 1.312720937797e+000 -5.731654953953e-001 -3.264579656033e+000 -2.425967448159e+000 -7.058648958858e-001 1.396352664537e+000 2.004958238993e+000 4.828617926164e+000
 3.605360650837e+000 4.382122241990e-001 -2.691352521707e-001 3.576232514263e+000 -6.129494068948e-001 1.373035441426e+000 3.592543065149e+000 1.552187908035e+000 6.865355792610e-001 -3.618661291466e+000 -2.068027419326e-001 -8.062666697669e-001 -4.203280932404e+000 8.337069992329e-001 -1.078383066908e+000 -3.992617130941e+000 -1.505139469633e+000 -2.156345013033e+000 -2.251449386983e+000 -2.556009135147e+000 -1.529806126189e+000 2.374249996729e+000 1.800206504694e-001 1.068046075925e+000 -1.711852465286e+000 8.689470430619e-003 -7.425063200668e-001 -3.632981781408e+000 -1.623020688480e+000 -1.505236643182e+000 1.547527930505e+000 2.147547217164e+000 3.839497902036e+000 5.863570834319e+000
 2.796292442955e+000 1.268888721956e-001 1.971289369010e-001 2.775044521799e+000 -4.821762265253e-001 4.741447636661e-001 2.005921819289e+000 1.060566867870e+000 9.529223851109e-001 -2.795713056581e+000 4.167617465949e-001 -5.523793151911e-002 -3.177979652466e+000 5.070004758672e-001 -4.848946024173e-001 -2.394336523798e+000 -8.164144105988e-001 -1.842925917490e+000 -1.446302982372e+000 -2.313974799625e+000 -1.405163656251e+000 2.034495128946e+000 3.304380335515e-001 -2.712917580369e-001 -1.078145303487e+000 -7.192182487352e-001 -7.845476386304e-001 -2.372786166976e+000 -8.755773361580e-001 -1.145805413434e+000 1.132055911968e+000 1.358189080697e+000 1.968142373985e+000 3.658561511977e+000 3.149765162134e+000
 -1.049580071943e+000 -8.553044237639e-002 -3.831579323930e-001 -1.173889214642e+000 1.413496011941e-001 9.995334618997e-002 -8.529558576726e-001 -1.250127543256e-001 4.784753692674e-001 9.323147536059e-001 2.418356083850e-001 1.525997789552e+000 1.378139969910e+000 -1.261749912048e-001 -8.449431249510e-002 1.236920322843e+000 2.753659006414e-001 5.253591053417e-001 4.065624980559e-001 5.153835185987e-001 6.662382072700e-001 -9.307248099774e-001 -4.043629510122e-001 -1.133678215656e-001 7.970584433447e-001 -3.981144396789e-001 -7.251301045677e-001 7.822547590873e-001 -7.039110978270e-003 6.203842542477e-001 -6.544705946335e-001 -6.138685106481e-001 -5.566649967467e-001 -1.545404298618e+000 -9.702707911214e-001 1.380646257413e+000
 2.137857423330e+000 4.825821421687e-001 1.061608015544e-001 2.382882705925e+000 -3.976463727004e-001 1.166082955725e+000 3.185651844450e+000 8.795960760500e-001 -6.547742608552e-001 -2.274250852267e+000 -1.029885629266e+000 -2.067047300534e+000 -2.839533700981e+000 6.984766603275e-001 -7.681946553198e-001 -2.801355035376e+000 -9.882738567372e-001 -1.571320948633e+000 -1.735970788790e+000 -1.830259998559e+000 -7.820712334372e-001 1.489733079665e+000 1.850430744147e-001 1.837206450082e+000 -1.669665352541e+000 1.245574124615e+000 4.099800811050e-001 -2.733243411642e+000 -1.332060617208e+000 -1.199917285605e+000 1.536379883959e+000 1.917441666582e+000 3.141824740083e+000 3.673944982155e+000 2.355949057005e+000 -1.130930403795e+000 4.243881972467e+000
 7.165231373213e-002 -4.368787615023e-001 -9.702214622577e-001 -1.305241521507e-001 -2.527470016407e-001 5.447890596409e-001 7.308514824263e-001 4.356219091779e-001 8.253536755089e-001 -2.922122458535e-001 1.238044062067e+000 1.916462781479e+000 1.084301063446e-001 2.869309960079e-001 -8.566622883246e-001 -1.219903273403e+000 -5.085955643778e-001 -6.835731198741e-001 -4.079487521539e-001 -7.902657185152e-001 3.540059762809e-001 9.991155164959e-001 -1.864723798170e-002 5.573871580288e-001 4.158952049379e-001 -1.081262661896e+000 -1.571985279227e+000 -1.576900005745e+000 -1.351668835658e+000 1.144860118693e-002 3.675924109402e-001 8.693703958204e-001 2.091523300808e+000 1.294224397951e+000 6.263305910787e-001 1.890029200613e-001 1.643935334000e+000 3.098422810195e+000
 1.332475848654e+000 -2.766239912418e-002 3.622190875912e-001 1.270570261382e+000 -6.420478747853e-002 -5.764617270511e-001 -3.029335879455e-001 1.050213173469e-001 6.312101703642e-001 -9.230523791903e-001 4.786930338903e-001 -2.991667100871e-001 -1.321519645538e+000 -1.446708691168e-001 4.951286841042e-001 9.180094238479e-002 2.357848150657e-001 -9.296044958736e-001 9.925172279593e-002 -1.346508177032e-001 -7.658009082392e-001 5.206219592921e-001 2.808814856219e-001 -1.673404826600e+000 -3.537994824914e-001 -8.823153336877e-001 4.537429408482e-002 2.343994672861e-001 8.735775030818e-001 -3.988861095171e-001 1.864221577557e-001 -1.842079728252e-001 -1.065960429068e+000 8.939180833035e-002 5.803751688836e-001 -4.731157042800e-001 -7.121306570392e-002 -1.209421520290e+000 2.122131401615e+000
 -2.183240522412e+000 -8.547080808145e-001 -4.970174748026e-001 -2.274722036320e+000 1.947129015304e-001 -3.167782193010e-001 -8.701307451093e-001 -9.548241833002e-001 -1.149956357865e+000 2.211425493735e+000 9.062909275305e-001 -6.108186746288e-001 2.190512744120e+000 -2.884059935537e-001 3.457091050213e-001 6.057171971882e-001 8.358666733622e-001 -3.834505594854e-001 7.941071535792e-001 1.859628894571e-002 1.194128951007e+000 -1.552036837618e-002 3.872268832271e-001 2.979536569239e-001 5.102561745236e-001 5.747654240557e-003 6.171563558709e-001 4.936914904146e-001 1.653574589138e-001 3.975737677219e-001 -7.004795291964e-001 1.381323078158e-002 -3.374311352563e-001 -1.044589800291e+000 -7.319096442285e-001 1.922803679093e-001 -6.019592322823e-001 3.003011625716e-003 -5.353422293611e-001 2.168111727815e+000
 -1.019405988683e+000 -2.378307334329e-001 5.005490460763e-001 -1.101576012252e+000 2.214064322279e-001 -8.225431621025e-001 -2.318198068468e+000 -4.045513707993e-001 8.852565854666e-001 9.944842828202e-001 6.671915248512e-001 1.443865575731e+000 1.323417209194e+000 -4.914214350983e-001 7.737841167994e-001 2.061162811624e+000 6.140345640012e-001 9.228514986699e-001 1.112152784096e+000 1.283077686956e+000 6.413837338561e-003 -9.513177121806e-001 -1.383602983088e-001 -1.882963161337e+000 1.020440023210e+000 -1.123423135910e+000 -3.201859549360e-001 2.070263152126e+000 1.199126532940e+000 6.941206641034e-001 -8.010700549718e-001 -1.406293040791e+000 -2.573270163493e+000 -2.524023776982e+000 -1.408023684742e+000 6.763462653256e-001 -2.565765388939e+000 -1.621328101282e+000 5.193421498454e-001 2.550351573026e-001 2.413741653361e+000
 -2.015168185028e+000 -8.947073916663e-001 6.474773399048e-001 -1.526130872162e+000 3.713135297865e-001 -2.184993638515e+000 -2.070754544480e+000 -1.556351581056e+000 -1.417501330416e+000 2.238099682309e+000 8.306638658017e-001 -2.170598103919e+000 2.145801528953e+000 -6.357653582849e-001 1.313639097159e+000 1.920417824063e+000 1.623523182103e+000 -9.508246340543e-001 1.337457553804e+000 5.409250246628e-001 6.047498174425e-001 4.561257128322e-002 8.953679958895e-001 -1.289237930358e+000 2.068155107657e-001 1.519023091635e-001 1.678015252695e+000 1.861002175226e+000 1.664266133537e+000 2.288191596607e-001 -1.197829961009e+000 -9.937539304935e-001 -2.353697998824e+000 -2.150038235483e+000 -1.116246802616e+000 -2.187929776905e-001 -1.349908117398e+000 -1.144757742434e+000 7.049384674655e-001 9.656852445740e-001 8.503733584010e-001 3.439090421327e+000
 -4.443149684370e+000 7.766570315824e-002 1.673639975756e-001 -4.485396900285e+000 9.042108356516e-001 -1.135903267685e+000 -4.433499461495e+000 -1.946643858847e+000 -1.671280104550e+000 4.579106692665e+000 -1.399842399150e+000 -1.025857063472e+000 4.999993447577e+000 -9.744539935225e-001 1.116830972184e+000 4.532762504755e+000 1.594809653095e+000 3.382735758136e+000 2.196824067103e+000 3.058463765408e+000 1.628857529228e+000 -3.590996346407e+000 -3.874801394256e-001 1.458461313660e-001 1.596109138831e+000 1.946778594696e+000 2.344953247819e+000 4.693273847428e+000 2.099125237992e+000 1.904041103030e+000 -2.245159693995e+000 -2.867904158449e+000 -4.285418369495e+000 -5.932261870404e+000 -4.324400133470e+000 1.668291937975e+000 -4.365265898562e+000 -1.890670058805e+000 -4.722150288622e-001 5.273476159993e-001 2.962599227148e+000 2.342626971693e+000 9.416260429482e+000
 -1.927281360022e+000 -2.302620282227e-001 -1.997442068123e-001 -2.110471875974e+000 2.960752132610e-001 -4.709700248382e-001 -2.678271859878e+000 -2.433542783868e-001 1.526041800595e+000 1.718883343767e+000 9.683820806185e-001 3.991863688128e+000 2.465280551611e+000 -4.537427838805e-001 -7.025796885347e-002 2.443229856579e+000 3.345614809021e-001 2.567209449757e+000 1.405277135524e+000 1.798303666675e+000 8.005428881429e-001 -1.794956506020e+000 -7.062234006963e-001 -1.365487066707e+000 2.018765015167e+000 -1.934178773730e+000 -1.591726450344e+000 2.251886075263e+000 6.467860913920e-001 1.437761663431e+000 -1.176224909687e+000 -1.614842292814e+000 -2.267464842539e+000 -3.520206213608e+000 -2.224065169025e+000 1.562047268128e+000 -3.114772064419e+000 -3.059415803905e-001 -5.008827345775e-001 -1.155393982592e-001 2.082806542348e+000 -1.031565200109e-001 4.218188683458e+000 4.506296192162e+000
 6.480915787569e-001 -6.224626502661e-002 4.965295743553e-001 1.110973756846e+000 -4.500286408821e-002 -2.685729500744e-001 2.664799778931e+000 -6.848312889285e-001 -3.960642493290e+000 -2.492524840723e-001 -1.363279329431e+000 -6.691267794530e+000 -1.376478809149e+000 1.702658799607e-001 8.580349244180e-001 -1.704786689216e+000 5.205874886302e-001 -3.039735314188e+000 -9.045421609023e-001 -1.707281800393e+000 -3.768864391376e-001 1.661466041370e+000 1.242060822585e+000 1.652272260875e+000 -2.315117926198e+000 3.162503721710e+000 3.537366363202e+000 -1.435602756809e+000 1.388116957441e-001 -1.451606345194e+000 7.218803793173e-001 1.420800665254e+000 1.321851528194e+000 2.725190027689e+000 1.755738876725e+000 -1.860188856210e+000 2.888603880311e+000 -3.843281244680e-001 6.989386565550e-001 6.551503165349e-001 -2.048088096778e+000 1.814870150230e+000 -3.013699450079e+000 -4.501859806937e+000 7.099212521169e+000
 2.773140042813e+000 4.553762246753e-001 1.135101060903e-002 2.652574240387e+000 -4.785751302735e-001 9.169266876204e-001 1.407156625605e+000 1.524836637527e+000 2.466827316645e+000 -3.156781923789e+000 3.828667338689e-001 2.334439823118e+000 -2.842012745968e+000 4.756192127651e-001 -8.394749428274e-001 -1.706726556527e+000 -1.315356441953e+000 -3.146744524596e-001 -1.082039614949e+000 -7.571410762447e-001 -1.245816947949e+000 9.775149083063e-001 -4.222873818079e-001 -6.410855108169e-001 -2.265154720425e-001 -1.607468343685e+000 -2.218750575822e+000 -1.805333397636e+000 -1.047181158262e+000 -5.468949838379e-001 1.160285037102e+000 7.826451816490e-001 1.543213240553e+000 2.241037054794e+000 1.640721418797e+000 -1.884865229962e-001 8.707294668912e-001 7.813095433872e-001 1.991921452739e-001 -1.372523115392e+000 -6.246714351800e-001 -2.164739022545e+000 -3.273974683485e+000 -5.516873464826e-001 -1.308294758752e+000 3.464033592078e+000
 1.338796742586e+000 2.375728250440e-001 2.733320190221e-001 1.577263971954e+000 -2.251710514326e-001 3.696441434161e-001 2.521653265795e+000 -2.169056617166e-002 -1.983665846688e+000 -1.164583936641e+000 -1.240929726631e+000 -4.410558565208e+000 -1.848654415108e+000 3.888197238894e-001 1.540924490627e-001 -2.133851940489e+000 -2.182926626814e-001 -1.988226858406e+000 -1.157857374555e+000 -1.641550400266e+000 -4.930264973780e-001 1.434901850969e+000 7.304587353627e-001 1.694670502783e+000 -1.939065575347e+000 2.285824705683e+000 1.942799114289e+000 -1.902976823950e+000 -5.482582759081e-001 -1.205262479889e+000 8.801521934498e-001 1.516733386198e+000 1.931438554821e+000 2.998025800864e+000 1.928699680164e+000 -1.538352637270e+000 2.857326751134e+000 1.715874508176e-001 3.851230084713e-001 2.527434973058e-001 -2.004872513109e+000 3.199731288956e-001 -3.520105006991e+000 -4.246118442877e+000 4.446492531070e+000 5.538369900819e-001 4.811855153708e+000
 2.989389929550e+000 6.961011411277e-001 6.961985582830e-001 2.725930620578e+000 -4.252188453347e-001 6.503725618209e-001 7.958901823935e-002 1.708207684863e+000 3.588717940606e+000 -3.516984512696e+000 3.088657146937e-001 3.278437272838e+000 -2.846025709866e+000 2.844900256637e-001 -4.434406877184e-001 -4.126018058840e-001 -1.242684651983e+000 4.828550683513e-001 -6.542301697785e-001 1.624908458337e-001 -1.845004522028e+000 2.041124610857e-001 -6.786963032946e-001 -2.092595802295e+000 3.170509110879e-001 -2.196562303339e+000 -2.672096429774e+000 -3.859190915567e-001 -2.329386091699e-001 -2.172586615344e-003 9.970147770516e-001 -3.472930681957e-001 -9.007554159092e-002 6.517266270669e-001 8.446069070029e-001 2.052699175951e-001 -2.682051454820e-001 -3.334429890355e-002 5.493414026200e-001 -1.988112967531e+000 7.796482719098e-001 -2.068471486862e+000 -1.230575440167e+000 1.317244638721e+000 -3.118305152858e+000 2.418297570319e+000 -1.451305698695e+000 5.233571318789e+000
 -8.569253144385e-001 5.179691685011e-001 1.406846415801e-001 -9.276907388831e-001 2.781714490151e-001 -5.778444280580e-002 -1.064328279888e+000 -2.689307840474e-001 -1.176573338475e-001 8.325562097583e-001 -1.072066165237e+000 4.771804239979e-001 7.467448396983e-001 -2.718603648548e-001 -3.952690034181e-001 1.463910078439e+000 1.546586791130e-001 1.928644777620e+000 5.441723764201e-001 1.327455878458e+000 4.164325563606e-001 -1.710004410918e+000 -5.480624388723e-001 1.915204569736e-001 4.991216906016e-001 5.437902774755e-001 4.128634083430e-001 1.661816601841e+000 6.922534094540e-001 5.892743880252e-001 -6.672452375720e-001 -1.032844545226e+000 -1.462233467539e+000 -2.030540583676e+000 -1.484253356082e+000 7.683472111896e-001 -1.609367418273e+000 -9.047466891418e-001 1.930188028165e-002 -1.456861829194e-001 1.169245550776e+000 6.744717233186e-002 2.701482136725e+000 1.923421336261e+000 -2.034752104232e+000 -5.899084687740e-001 -1.993815346220e+000 4.686729195671e-001 2.533368279548e+000
 2.539218644963e-001 6.820841925936e-001 -1.641986631825e-001 1.769270668074e-001 6.986836846959e-002 6.202787856066e-001 3.061676938312e-001 3.845259382911e-001 1.126778699206e-001 -3.213013064270e-001 -1.143633718890e+000 4.825962027013e-001 -2.916533523661e-001 1.339713645133e-001 -5.588733373541e-001 9.788132826245e-002 -4.717941265523e-001 1.263295330922e+000 -3.028147301289e-001 5.053676698474e-001 8.779629998368e-003 -9.806898801575e-001 -5.994484216976e-001 8.419367012538e-001 6.986838744491e-002 6.399604725083e-001 -5.697627410005e-002 2.222091426863e-001 -1.929617661550e-001 2.208811583400e-001 1.937359673902e-001 -1.944121559258e-001 2.436065536459e-001 -3.158200968840e-001 -4.379997775973e-001 4.517295209516e-001 -2.641339445456e-001 -1.000299277115e-001 -2.915528471013e-001 -5.241142761330e-001 2.080553376242e-001 -9.738427161262e-001 6.030123194221e-001 8.297667128167e-001 -1.395571138069e+000 1.889755180820e-001 -1.411795143461e+000 7.260858056682e-001 1.066609071744e+000 1.310159229624e+000
 -1.225765325249e-001 -1.425564845605e+000 7.808437907426e-001 -3.089997597735e-002 -1.017278500985e-001 -1.776021130090e+000 -1.315521104089e+000 -8.858604509493e-001 -9.593709411724e-002 3.423130268570e-001 2.391146336173e+000 -1.908480234599e+000 -3.228889223843e-001 -5.523683319415e-001 1.107580453168e+000 2.361101107481e-001 1.355254850854e+000 -3.629938587236e+000 6.977787776104e-001 -7.474346407524e-001 -5.022304071774e-001 2.204879670150e+000 1.430660650918e+000 -2.753685900347e+000 -3.755415010566e-001 -1.217952728738e+000 6.618974670791e-001 1.520692871045e-001 1.156479034356e+000 -7.648355164087e-001 -3.670584675394e-001 -9.060225671100e-002 -1.396004100688e+000 4.407679030729e-001 7.292131670572e-001 -1.092995747753e+000 1.842753465164e-001 -5.300307278449e-001 1.338019521735e+000 1.015358302141e+000 1.198633654283e-001 2.858993676469e+000 -6.508510698136e-001 -1.940870593293e+000 3.553596230238e+000 -1.346756867373e+000 1.581577878659e+000 -1.718745478240e+000 -1.131822432883e+000 -1.535683424360e+000 5.466316166691e+000
 1.176889857120e+000 -3.617729501879e-002 -9.717902431558e-002 1.223830356518e+000 -2.202608411434e-001 3.650948445134e-001 1.411234813529e+000 5.491619675697e-001 3.894762920075e-001 -1.190891095187e+000 3.019333754836e-001 -1.816834736312e-002 -1.475317256299e+000 2.911705564429e-001 -3.221070788864e-001 -2.131041200073e+000 -4.482371352343e-001 -1.480553779645e+000 -6.749840020157e-001 -1.003590195239e+000 -3.286205228508e-001 9.970411822373e-001 1.105044367726e-001 2.519761149467e-001 -5.930766065728e-001 -3.345784544917e-001 -5.535553187979e-001 -1.518648412212e+000 -6.868982178745e-001 -5.887013092349e-001 6.498307317997e-001 9.836170485143e-001 1.367357064391e+000 1.906880522464e+000 1.327784276215e+000 -5.648171906061e-001 1.264018361869e+000 2.181654476524e-001 1.713520099744e-001 -2.560413998652e-001 -1.055018971740e+000 -7.040100037024e-001 -2.449401940445e+000 -1.322698730769e+000 1.043070295657e+000 8.084395855181e-001 1.122133033528e+000 1.612779177700e-002 -1.427698527715e+000 -1.998771599323e-001 3.380021251119e-001 2.260650858212e+000
 -4.230404153594e-001 -6.665674966409e-001 -2.661552442141e-001 -5.517841038473e-001 -1.695509659550e-002 -4.046866191893e-001 -5.816838381924e-001 -1.129203747083e-001 8.368560489682e-001 3.521890642044e-001 1.519484717053e+000 1.573525650309e+000 5.780885783239e-001 -1.304003098806e-001 3.547826310939e-002 2.623744852339e-002 3.170764013811e-001 -5.023341669007e-001 4.389982725597e-001 -5.395626851616e-002 3.700352400994e-001 5.625989251448e-001 1.594948739759e-001 -9.546321918833e-001 5.153739914737e-001 -1.530335020552e+000 -1.078417485507e+000 -1.630726660570e-001 -4.520906329893e-002 1.183312346953e-002 -4.304280447588e-001 -4.206684915177e-002 -2.079866308700e-001 -6.327542474291e-002 -4.039305458809e-002 1.260019601330e-001 -6.316191090567e-001 -3.768014720320e-001 1.803422211235e-001 4.306346988005e-001 1.697316431579e-001 2.100629009434e-001 -2.809433990356e-001 3.707500845994e-001 -4.440981495280e-001 -2.143861406411e-002 -4.613533817652e-001 -1.999897827254e-001 -2.030705592165e-001 -2.437426572834e-001 4.872454111432e-001 5.075462801368e-001 1.228054755174e+000