#BIOSYM hessian 1
@Type: Hessian Update
@Units
 distance: 	A
 energy: 	Kcal/Mol
#header
@natom 19

#label
L1      L2      L3      L4      L5      L6      L7      L8      L9      L10     L11     L12     L13     L14     L15     L16     L17     L18     L19

#element
Li Li Li Li Li Li Li Li Li Li Li Li Li Li Li Li Li Li Li

#matrix
57
 3.058755672113E+01
 -3.986383716690E-01 2.586958560270E+01
 7.557139656951E-01 -5.047634148253E+00 2.178440420654E+01
 -3.708526669929E+00 -9.160955193148E-01 3.004107291856E+00 2.305818101637E+01
 -7.690748022152E-01 -5.815757046068E-01 1.529878198223E+00 5.913956477049E-02 1.758727399640E+01
 6.913822076933E-01 1.728662847540E-01 -1.622148383949E-01 -3.337614097650E+00 7.651707661226E+00 2.634322585918E+01
 1.121096965112E+00 3.667582657382E+00 -2.734902574999E+00 -1.135107307601E+00 2.701266523108E-01 8.902558652148E-01 1.835862523389E+01
 -1.147373030526E-01 7.565936339714E-01 -1.449998915632E+00 -1.345228844952E+00 2.081205279782E-01 -2.739380511387E-01 -2.836571131253E+00 2.130187585231E+01
 -2.316749979612E+00 -2.572049440226E+00 5.286287180833E-01 1.351264971717E+00 1.325152941018E-01 -1.535668985696E+00 1.665802236237E+00 9.880584021166E+00 2.388207401347E+01
 6.250771551679E-01 1.011770995741E+00 -1.628091603965E+00 -3.000948258417E-01 -9.251853846035E-01 -8.259810576839E-01 5.653420207000E-01 8.941532035461E-01 -2.327403337319E-01 1.433246335055E+01
 2.751705483808E-01 -2.749390964292E+00 -6.649761815115E-02 -2.569931919527E-01 -2.672122555264E-01 -3.558808692868E-01 2.214400665858E-01 1.835913305196E+00 4.869763035378E-01 -9.960063477306E-03 2.361570065136E+01
 -1.091045922299E-01 8.410390957199E-01 2.748868140188E-01 2.996945075593E-01 -1.266403032971E-01 -6.265533743107E-01 9.979407334106E-01 -3.822453595705E-01 4.345379136833E-01 -1.214140876741E+00 -1.246668814815E+01 2.023425971469E+01
 -6.820317671553E-01 -9.381635387756E-01 1.028285714527E+00 3.378545356070E-01 1.453303315216E+00 1.157648153777E+00 -2.508757001418E+00 1.287238211767E+00 -6.552903251408E-01 -2.796788603604E+00 -1.090341966443E+00 -1.452791735942E+00 9.562813267885E+00
 -1.564193718525E-01 6.011821101624E-01 -1.565174292481E-01 -9.551777648006E-01 -2.571932463571E-01 2.338302549440E-01 2.185166164645E-01 -4.075700015137E+00 6.888083485634E-01 -3.285221330838E-01 -7.047534535777E-01 -4.563753395286E-01 2.818715857837E+00 1.347332669573E+01
 2.158426221836E+00 1.824551810203E+00 -1.040364199923E+00 -1.046661875991E+00 2.599306797975E+00 7.642551575690E-01 -6.604488368468E-01 7.782730433414E-01 -3.143184011573E+00 5.311788129350E-01 -1.372837617937E+00 2.540782607775E-01 -1.752053924892E+00 -4.296727789240E+00 2.823673344522E+01
 1.114569414841E+00 -2.078076207863E+00 4.109644603466E+00 -1.048966988756E+01 8.001257484577E-01 5.481405221001E+00 -5.595972651634E-01 -9.852577937920E-01 -5.197707707733E-02 -7.120580686603E-01 -1.749149193047E-01 1.387710920966E+00 9.103877852489E-01 -9.836243297865E-01 2.560306883443E-01 2.900462761079E+01
 -1.380141214946E+00 -5.237518622398E+00 -3.575633686638E+00 -2.019822373139E-01 -1.234445761923E+00 4.814671438012E-02 -1.350588884475E+00 -7.640921744021E-01 9.770704499404E-01 -6.545751675172E-01 2.085198499314E+00 -2.160417965623E+00 4.854481064650E-01 3.521874145217E-01 -2.809587921895E+00 4.743835828244E+00 2.928042314101E+01
 -5.619103530346E-01 -3.801720895426E+00 4.201241178010E-01 4.764008860082E+00 1.355498819641E+00 -1.540077086228E+00 -1.410335819181E+00 -1.768140523126E+00 1.384413545136E+00 3.440053342623E-01 -3.752956891482E-01 1.170439467229E+00 -4.550948695806E-01 -6.530214317247E-01 1.256555578657E-01 2.060975870679E+00 -5.489156371125E-01 2.718727592740E+01
 1.150503992006E+00 4.734707219720E-01 -1.070570068212E+00 -2.394045414392E+00 -1.509232487368E+00 -4.135684566932E+00 1.601956846862E+00 8.094103798000E-01 1.654513393421E-01 7.097965248774E-02 -3.955364335126E-01 7.127682048055E-01 3.930479007906E-01 5.602648258639E-01 -8.869776181280E-01 -1.783053706608E+00 2.205967166171E+00 -6.762249152680E-01 2.371328107128E+01
 -1.065367153446E+00 -2.202498332638E-01 -7.812586471960E-01 -4.324664172101E+00 -1.857666881570E+00 -3.226926297918E+00 5.460369649002E-01 -1.360428164515E+00 -8.779862357171E-01 -3.300105279716E-01 -4.593027485672E-01 4.628452817559E-01 -9.009709617316E-01 3.161737638366E-01 -1.454861079076E+00 5.421992915405E-02 2.085252482983E+00 -2.247384441909E-01 -1.326419654251E+00 2.272094426599E+01
 2.008057664513E+00 6.664917841182E-01 3.420615739542E-01 -3.964961161448E+00 -3.348620944065E+00 -6.747889299067E+00 4.720961162709E-01 -7.354635262402E-01 -5.985779166371E-01 1.673498604381E-01 1.432402086184E+00 -4.619415726893E-01 2.338329692995E-01 3.936451410733E-02 -6.068884009836E-01 1.954283057248E-01 1.059111369570E+00 -5.474544188112E-01 4.079021945177E+00 -1.559963241799E+00 2.801381395807E+01
 -2.162196782142E-01 -1.067343754460E+00 1.613331501867E-01 3.401455165251E-01 -5.191940027702E-01 5.142620868539E-01 3.787540616751E-01 7.108461827931E-02 1.367602354585E-01 -3.406456254024E+00 8.598168906106E-01 1.310249578697E+00 -1.031141406933E+00 3.828318688718E-01 8.525691291438E-01 -1.304213263940E-01 1.032849260735E+00 -6.526530069675E-01 -1.239935006809E+00 -4.648631201674E-01 2.353604505679E-01 1.707348205371E+01
 -9.086952090134E-01 5.541464537388E-01 1.337984155005E-03 2.209837678328E-01 -1.433488106828E+00 -7.438372108569E-01 1.413002745061E+00 -2.144102506714E+00 -9.770514963274E-01 1.440095170230E+00 -7.001520220244E-01 -3.152989861448E-01 -4.257891789141E-01 -3.126378420746E+00 -4.631939420235E+00 -4.003976144182E-01 2.637261175250E-01 -4.827379832687E-01 -3.413396201744E-01 -5.194797872616E+00 4.785358987743E+00 -3.862372198853E+00 2.403594410724E+01
 -1.446075795665E+00 7.803276765267E-01 -1.033819710803E+00 -6.163639689835E-02 -1.809246189983E+00 1.079081585111E+00 7.902944166010E-01 1.654054121452E+00 1.944948553761E+00 2.176615104807E+00 -2.309363431973E+00 -1.592899281331E+00 -3.341977274932E-01 -4.825276516175E+00 -9.522227218050E+00 4.496202292058E-01 -2.889201470851E-02 -7.014454165941E-02 3.478974433892E-01 6.259319392231E+00 -8.517631677313E+00 1.354621325899E+00 1.859541972561E+00 2.458380702905E+01
 -1.241326991220E+01 3.643472299528E+00 1.044397899703E+00 -1.426401699938E+00 1.341800023462E+00 2.670883690232E+00 -2.363181750512E-01 -1.178160727402E-03 -1.076221836103E+00 -3.266549439282E-01 -1.018597672616E+00 -1.640191838748E+00 -1.497115997103E-01 7.107976934088E-01 8.379310410330E-01 -5.079125582001E+00 -6.144689694282E+00 -3.359812473989E+00 -1.331318012087E+01 5.390722420008E+00 -2.430651004799E+00 4.018946672819E-01 -3.182327295653E-01 9.246684618094E-01 4.524397946364E+01
 3.889041542520E+00 2.033837542571E+00 -1.611010878540E+00 1.040063383585E+00 -8.829970447968E+00 -9.217135530843E+00 8.433523196578E-01 2.373437687767E+00 1.050400036423E+00 -4.988728201093E-01 9.646429873017E-01 -1.778064222852E+00 -7.826757661300E-01 -5.006249104387E-01 4.350558865800E-01 -9.883764563603E+00 -4.056332467299E+00 -5.606455355703E+00 2.454887492141E+00 -1.652702145174E+00 1.763604857191E+00 7.717590344988E-01 1.567711752989E+00 -2.839870013858E+00 -1.260227235922E+00 5.453185099084E+01
 3.220533946393E+00 2.116537106995E-01 -1.519557280661E+00 2.316794199531E+00 -6.426572705131E+00 -8.480689548010E+00 6.461621899318E-01 -7.990086981529E-01 -9.665314174558E-01 1.335855202406E+00 -1.645828611583E-01 -2.844933620516E-01 -1.971045590754E+00 1.455751471933E+00 -4.902211122138E-02 -5.322486281824E+00 -4.438040723281E+00 -3.073017618928E+00 -7.524813698054E-01 1.797501870598E+00 8.328337149998E-01 2.442039331819E-01 -1.435506356436E+00 1.207767431836E+00 4.172406444294E+00 8.447702985530E-01 4.780081457695E+01
 -7.950244153669E-01 -1.528144837949E+00 3.366030085612E+00 1.650926869643E+00 7.615114239688E-02 -4.086262153216E-01 -5.822654132814E+00 8.506452518048E-02 1.109499541933E+00 -4.427905296191E+00 4.933874749868E+00 1.607996928983E+00 2.795873492325E+00 -2.487780785337E+00 3.106444248731E-01 1.545578705915E+00 -1.585215696537E+00 1.266466217108E+00 -7.922913786527E-01 -9.883034698492E-02 -2.331512963484E+00 -9.335517323880E-01 -1.970683016756E+00 1.868378994412E-01 2.947378166722E-01 -1.225632380307E+00 -1.071752195142E+00 1.504861736997E+01
 -1.575923551882E+00 -8.772192629327E-01 1.611051674691E+00 1.026396410441E+00 5.159468586379E-01 -8.443439581679E-01 -1.217845356683E+00 -2.825573399615E+00 -2.911559640570E-01 1.940414956223E+00 -5.503430539482E+00 -8.520314994166E-01 -1.637359646905E-01 9.588403988103E-01 -8.778073213037E-01 6.413141723091E-01 1.895370863277E+00 1.478064579397E+00 -2.728709345025E-01 5.474392080736E-01 5.216470041922E-01 4.516602396564E-01 8.719384538683E-01 -1.349783390333E-01 2.512989936091E-02 8.832389211544E-01 -1.084993430753E+00 1.974815884757E-01 1.703117064494E+01
 9.745087023293E-01 -3.471175742379E-02 4.067938393660E+00 3.988170306893E-01 5.702183699172E-01 5.982579234362E-01 -1.703029276823E+00 -1.218498831698E+00 -9.615440149469E-01 -5.135599746980E-01 -1.282466447616E+00 -7.421477410751E-01 1.140176286221E+00 3.265919816415E-01 3.055724365707E+00 1.242346498582E+00 -2.355374803005E+00 -5.462513635595E-01 1.407670335156E-01 -5.787864779808E-01 -7.754956365486E-01 4.594596345912E-01 -1.735199495103E+00 -5.218226724033E-01 1.182699118976E-01 -2.245721734870E+00 4.350569182075E-01 -5.728299867279E+00 4.631438983799E+00 2.050310270405E+01
 -3.836592670892E+00 5.295232335518E+00 -5.556290893781E+00 -6.685633766561E-01 -7.626346708233E-01 -1.580784118784E+00 5.577298896498E-01 2.806611692079E-01 -2.298744043163E-01 -4.043753104039E+00 4.477286702724E+00 -5.840399557622E+00 -4.695720860349E-01 2.268258874548E-01 -2.194627614878E+00 -3.121097525561E+00 4.691668923881E+00 -2.550245711831E+00 -4.338825160975E-01 1.450757387252E+00 6.498853649950E-01 1.089753858906E+00 -3.319871263398E-02 -5.786500954724E-01 -2.620638729574E+00 2.370649341172E+00 3.446966139656E+00 -2.864279421213E+00 6.948706911920E-01 -1.192280110510E+00 2.834204663857E+01
 5.208294001341E+00 -1.054274870928E+01 8.891618334150E+00 8.316337429321E-01 2.299321182321E+00 2.824371796607E+00 -1.214244813856E+00 1.606025869840E-01 1.304011379834E+00 2.066084017656E+00 -3.211383278697E+00 3.821562493934E+00 1.193234959588E+00 -1.170431766626E+00 2.461944747650E-01 5.000513085763E+00 -5.856416799733E+00 -2.223677150888E-02 -7.411042993360E-02 -2.941084691409E+00 -1.358870522285E+00 -1.140689708869E+00 1.140458933419E+00 -2.691994551940E-02 -4.363212806066E+00 -6.602687031900E+00 2.081901937781E+00 4.191842218168E+00 -6.151550343334E+00 -5.518696775456E+00 -1.186659709869E+01 3.291687169698E+01
 -4.095485131820E+00 4.914694430049E+00 -7.627916827538E+00 -2.766275998427E+00 -1.256361705674E+00 7.648329998795E-01 8.795981019996E-01 1.416208894334E+00 -5.236917929381E-01 -1.080570354032E+00 4.135462194440E+00 -7.153072246888E+00 -1.411854690232E+00 3.128356574277E-01 -3.040217166500E+00 -2.335947242757E+00 1.940290607386E+00 -1.404351580198E+01 -2.031836786873E-01 1.955385900333E+00 7.879334323837E-01 2.729470961263E-01 1.093444370060E+00 1.771749060792E+00 4.554491401230E+00 5.547310696104E+00 -2.138834288949E+00 -2.656781618337E+00 -8.129863185250E+00 -1.454404072812E+01 4.065343423304E+00 -3.439170105312E-02 4.458742232270E+01
 -4.152534423131E+00 -5.841569900076E+00 -4.146557225749E+00 -4.837897786891E-01 -1.037068716460E-01 -3.327748581963E-01 -6.868825966293E+00 4.584165506650E-01 -3.252229572027E+00 -2.926530787819E-01 3.843770264981E-01 -9.764963141931E-01 5.598187597318E-01 9.787638027980E-01 -1.899175511737E+00 9.213083253675E-01 1.408976415785E+00 8.447730723092E-01 4.354975905482E-01 6.811940343296E-01 7.301833762765E-01 -6.966707326114E-01 8.269068382168E-01 1.001116063116E+00 -1.057754312980E+00 -1.287262086802E+00 4.019518760341E+00 -7.324090918924E-01 -4.034887610644E+00 3.585033518772E+00 -7.747477021607E-01 -3.815483444700E-01 2.116737213356E+00 2.989488892931E+01
 -2.568087165241E+00 -9.929729017940E-01 -6.179505443787E+00 -1.617295715541E+00 -1.543835032162E+00 -4.375301415675E-01 1.129422153452E+00 -2.820141201266E+00 3.267693863834E-01 1.077030778102E+00 5.001477735768E-01 -5.791297274414E-01 -8.561887971313E-01 2.476851312541E-01 7.469489522744E-01 -2.236287396792E+00 1.317342229373E+00 -2.542945210403E+00 6.219918245860E-01 2.505789184605E+00 9.676580245112E-01 5.742270790646E-01 2.122555085522E-01 -6.760632955056E-02 1.145027905137E+00 -3.526766791785E+00 -1.222675818144E+00 -5.487251624988E+00 -3.958417783716E+00 4.221631912881E+00 1.373590457226E+00 -6.997445061800E+00 3.014737281464E+00 1.777317860184E+00 2.438911021204E+01
 -3.478411751988E+00 3.403701759045E+00 -9.351471232399E+00 -7.228789732893E-01 2.127875274728E-01 1.485534808876E-01 -3.488109226805E-01 3.825314781662E+00 -6.319360993271E+00 1.213063760925E+00 -2.081651827772E-01 8.571528426308E-02 -2.147842756336E+00 -2.924937256094E-01 1.348255452048E+00 -3.594265085559E+00 -1.116793784513E+00 -2.730975640111E+00 -3.616580756075E-02 -6.132872588665E-01 -1.268866689559E+00 2.261930190132E-01 1.366686165878E+00 1.345492210450E-01 3.525688367592E+00 -9.748854888675E-02 -5.247970969535E+00 9.761157347095E-01 3.578265359477E+00 -7.957479630664E+00 2.784809631236E-01 -3.023051070254E+00 2.965149127150E+00 -5.586158869557E+00 -2.672689070765E+00 3.961453865894E+01
 2.259457812290E+00 3.302591506984E+00 -1.668259528606E+00 -3.095273236719E+00 -1.800442368364E+00 9.094608999518E-01 1.902210114427E+00 -2.786960342822E-01 -2.239247361708E-01 9.346769399518E-01 2.065694237911E-01 -1.724472749568E-01 -7.270551097901E-01 5.646143027961E-01 5.039856786815E-01 -6.152289462527E+00 1.070303809718E+00 -3.981658894889E+00 -2.116755259749E+00 -2.019635590277E+00 2.227732780574E+00 -7.667262694545E+00 1.369220103470E+00 -6.219991114837E+00 -1.379035437494E+00 3.562697335506E+00 -1.582987186543E-01 9.573868350411E-02 4.660177164761E-01 -1.171167768812E-01 -7.642436439702E+00 5.330912514780E+00 4.714357917628E+00 -2.517789880680E+00 -7.727438312636E-02 1.519612889636E+00 2.817210933935E+01
 1.943387311822E-01 -5.999548460426E-01 2.828926846476E+00 8.461683364969E-01 -1.716330437784E+00 2.169797364068E+00 -1.207355943749E+00 -1.096084336830E+00 -1.724479335456E+00 1.231938231003E+00 -9.607636095553E-01 2.798382628904E+00 3.831940302271E-01 -6.682280081758E-02 7.182374827063E-01 5.014838522759E+00 -4.577173162138E+00 1.980559956526E+00 -3.222787081736E+00 -2.532603669524E+00 -6.007340962429E-01 -1.411986694549E+00 -1.338620664951E+00 6.947081048532E-01 2.391140720118E+00 -1.309448729388E+01 2.921685713846E+00 1.757955224167E+00 -2.266906866851E+00 9.738902760401E-01 9.869538829853E-01 2.091551602913E-01 -7.597473721440E+00 2.532620719782E+00 -2.456564977682E+00 -3.471119636921E+00 -6.711984720257E+00 3.047095161900E+01
 -5.913788379832E-01 2.362683937538E-01 -2.230992219566E+00 9.945761419074E-01 8.084868471124E-01 -1.155970925866E+01 6.998324141885E-01 -1.642576868993E-01 -8.843239468501E-01 -1.050778833944E+00 1.109844723865E+00 -6.042017577854E+00 -1.569613901690E-01 -1.052715680285E+00 -5.433992159774E-01 -7.277457362411E+00 4.097787521639E+00 -6.904710303155E+00 1.530242273519E+00 2.000373334914E+00 7.403045532121E-01 -4.647443876470E+00 1.951102339956E-01 -6.491292435858E+00 6.274884820807E-01 7.555907451429E+00 -1.916863319646E+00 -1.497944262660E+00 -3.500114344236E-01 -1.372309962579E+00 9.895258210284E+00 -7.660710439681E+00 1.584975837059E+00 -6.273735407361E-01 2.499318039270E+00 1.626640549403E+00 3.611464200040E+00 -2.811410474423E+00 3.623627935229E+01
 -3.352875847696E+00 1.090345467753E+00 -1.740711893863E+00 9.625361321047E-01 -1.013492033032E+00 -7.254088087182E-01 7.953870013724E-01 -1.347600497637E+00 -5.216517442833E-02 -1.389064178535E+00 -7.115389189455E+00 2.924529370340E+00 -2.684768356364E+00 4.436042828991E-01 -2.557820121634E+00 -3.290351164927E+00 1.471236636684E+00 -8.088471170933E-02 6.105543252464E-01 4.805812009052E-01 -1.922875186379E-01 -4.465918082310E+00 7.131818528903E+00 2.321517101611E+00 -1.438128617074E+00 2.045180277685E+00 -4.685521910534E+00 -3.208521888388E+00 9.422884260300E-01 -1.037667973179E-01 -2.088164961789E+00 -6.378943235777E+00 8.491317217778E-01 -3.291652717373E+00 5.741661002777E+00 2.578755790291E+00 -1.740026960021E+00 -3.507699100973E+00 8.882425510990E-01 3.370762861883E+01
 4.888254651054E-01 -1.812507424980E+00 3.786311420715E+00 9.525368531019E-01 1.881452884536E+00 1.867732677586E+00 -2.252650229159E+00 -1.076911948556E+01 -8.919816323891E+00 -6.973465184404E+00 -1.428479679337E+01 1.086378469833E+01 2.751649639321E+00 -1.574193738678E-02 2.100514467822E+00 4.736781643528E+00 -1.069144154861E+00 3.531110446634E+00 -7.515816037836E-01 -4.851996152542E-02 -1.954416803928E+00 5.335284324014E+00 -7.872405381645E+00 -4.757950595408E-01 2.280166529221E+00 -4.422719807371E+00 1.468759285113E+00 3.022469216375E+00 8.005739624681E-01 1.156192085557E+00 -5.571663165441E+00 3.975596444004E+00 -7.488617312604E+00 2.928724025998E+00 -7.106558204344E+00 -3.056946852505E+00 -4.030204733256E+00 -6.357158007219E-01 -6.536293914141E+00 1.387410782884E+00 4.612013836362E+01
 8.170732939893E-01 -1.774543148498E+00 6.972016774315E-01 -1.022428273859E-01 1.801199967385E+00 1.917940943121E+00 -2.668915725441E+00 -8.550838223002E+00 -6.521765440395E+00 1.769997498373E+00 9.512077934124E+00 -4.261708248991E+00 -2.285577336225E+00 1.245312016872E+00 -4.060643068127E+00 1.443164327928E+00 1.195621479759E+00 2.553101360080E+00 1.313098821243E-01 2.336661402259E-01 -1.452084610326E+00 1.976868652994E+00 1.703771661761E-01 -1.437921933418E+00 -1.921736070542E+00 6.005206751082E-01 -8.197312181558E+00 3.303584781751E-01 3.981374056694E-01 5.732748109318E-01 -1.186826658794E+00 -1.404479457872E+00 -2.016836071077E+00 -5.933996064530E-01 1.484208192637E+00 -1.359023612080E+00 -1.048483931865E+00 -8.156045262362E-01 -4.197663751024E+00 4.377516723661E+00 -1.164692997564E+00 2.762885652528E+01
 3.343762771533E+00 -2.414602080820E-01 -6.199251725706E-01 -1.549714428884E+00 7.954549827577E-01 -4.055956602584E-02 -5.865681910037E+00 3.280406565636E+00 1.825675545143E+00 1.221878624595E+00 -1.081520845103E+00 2.353794285331E-01 -4.086901481469E+00 -1.866593835504E+00 5.657779160371E+00 1.117837507571E+00 -1.519939655431E+00 1.428546540437E+00 -2.733987465494E+00 -3.069265368041E-02 5.228447483653E-01 -1.092249297331E+00 -3.698246740920E+00 -6.347706457389E-01 2.142138214617E+00 -5.111128605831E-01 2.029627563172E+00 -1.025422267176E+00 -5.051248799998E-01 1.007800167261E+00 -1.160985997439E+00 3.223780900051E-01 -2.548635608284E+00 1.886896523967E+00 1.086911560676E+00 1.483875426519E-01 9.165908276992E-02 1.346898962056E+00 -1.279730286940E+00 -1.292740169148E+01 -2.131846207115E+00 -1.504623244944E+00 2.811395104361E+01
 1.984830057671E+00 1.388050555312E+00 -1.447651571368E+00 1.611880644997E+00 2.150991825436E-01 4.764759380507E-01 3.244053403048E+00 -7.318709556938E-01 -1.495492976083E+00 -1.179655332184E+00 1.921449931626E-01 -1.624084261726E+00 -3.592327040714E+00 -6.651683408867E+00 7.005147058602E+00 -2.436814817444E+00 -1.544507129327E+00 3.874781020734E-01 -4.142383919128E-01 -2.111780927403E+00 -2.035121999741E+00 -2.372444803682E+00 -6.606684015926E+00 -7.219899751519E-01 -1.011245478290E+00 3.330538437212E+00 -3.772878431593E-01 9.889094314428E-01 -7.558897716670E-01 1.188144792154E+00 3.927606582781E-01 -1.837058028438E+00 1.253264093739E-01 -1.627557831218E+00 6.601599497730E-01 1.596353880324E+00 -2.100246850269E-01 -1.077279327517E+00 2.150824011835E+00 -1.048537690209E+00 -9.220833181533E-01 -1.163182214278E+00 2.740061666986E+00 2.039373302055E+01
 -1.593372355639E-01 -1.358459795580E+00 7.680830093094E-01 1.249999714664E+00 1.552264933352E+00 1.227175642496E+00 1.690458138860E+00 -2.162719387302E+00 -2.388941586694E+00 -4.078442409110E-01 1.469256224176E+00 3.551014493485E-01 5.675625981375E+00 7.229492600350E+00 -1.126392145064E+01 -2.944366951439E-02 9.549876591825E-01 -8.228958646774E-01 -2.094165715129E+00 -2.260076359860E+00 -5.415056649298E+00 -1.119446186496E-01 -1.820991114452E+00 -1.897975177677E+00 2.776585777393E-02 -1.042406205684E+00 -3.078610183568E-01 1.804150944303E+00 -1.346477578506E-01 -4.651646095830E-01 3.883904062732E-02 1.712690267761E+00 -3.472272426774E-01 1.635300957436E+00 -5.188926929805E-01 -1.071603745832E+00 2.388485612634E-01 -2.749323286590E-01 -4.830676616894E-01 -3.753124634816E+00 1.077798486708E+00 -7.940984144811E-01 -1.719811645439E+00 -5.127469688573E+00 2.287454446229E+01
 -1.231314277117E+00 1.380767380757E-01 2.733694183033E-01 -1.812206443169E+00 -4.210843960335E-01 1.443071295575E+00 3.672108814998E-01 3.348836326719E-01 3.697136302968E-01 1.010256716711E+00 4.581284966879E-02 2.110620418436E-01 -9.345801324101E-01 3.506292350088E-01 3.090499504047E-01 1.206698581168E+00 -1.080688067142E+00 3.497006501704E-01 -1.088713676352E+00 2.354089034876E+00 -1.251265847979E+00 -2.453060571105E-01 7.706682714649E-02 3.326446062333E-01 -2.862450236915E+00 -4.143565689916E+00 3.526807836453E+00 -7.173263848876E-01 -2.488940584564E-01 -1.357599802241E+00 -6.839171220874E-01 4.723405369059E-01 1.600508829092E+00 2.933925084659E-01 -3.376119457268E-01 3.474644473180E-01 -6.337809997160E-01 1.239819383617E+00 -2.699388799487E+00 1.592944762504E+00 -9.278346618066E-01 1.445093643001E+00 1.392047620142E-01 -7.893402383697E-01 -6.202735490635E-01 2.001628363174E+01
 -6.653947364118E-01 -1.030494839633E+00 -1.545468166965E+00 -1.913743443792E+00 -2.118478573125E+00 -5.835178470992E-01 -1.911294660629E+00 7.932205428444E-01 1.912185500867E-01 3.129739183206E-01 4.956085113083E-01 1.268990683773E+00 -1.421211383520E+00 1.795788410948E-01 -2.055540977692E+00 1.511941452878E-01 9.445016479106E-01 -7.686905329593E-01 1.297340320899E+00 -1.811309271097E+00 3.110659787736E+00 7.146168427357E-01 5.888689315524E-01 2.747922815764E+00 -1.434659504921E+00 -1.140277228851E+00 3.863156401955E+00 8.370453989277E-01 -5.179201927025E-01 -9.248036714800E-02 -1.786017610011E-01 7.731158014336E-02 2.501283386943E+00 1.815600114470E+00 1.418188304781E+00 -7.575631272728E-01 1.155727225844E-01 -5.998463750295E-01 -1.428102392368E+00 1.247325994844E+00 -2.360534279675E+00 -4.236808579382E+00 -1.712111076882E+00 6.809195329300E-02 -2.792555413841E+00 6.637988326519E-01 9.907286685017E+00
 1.571658392004E+00 2.668477481802E+00 -1.612791124513E+00 -1.825332535682E+00 -4.204847598862E+00 -2.538825981190E+00 2.399388114887E+00 7.267450766364E-01 -6.502527959681E-01 -3.861834109737E-01 -8.299908570202E-02 -1.007353772955E+00 1.094985206166E+00 1.553886788660E-01 8.332884214479E-01 -1.676857645273E+00 -3.506414566311E-01 -1.179434967911E+00 2.762416013671E-01 2.959037841163E+00 -4.488633709110E+00 -1.408455665722E+00 -5.420261853922E-01 1.844285873797E-01 3.143970670254E+00 7.506020388538E+00 -4.054027570220E+00 2.882550161815E-01 -3.385431314368E-01 -3.058289266665E-01 1.246142915192E+00 -1.464331606740E+00 3.028811099613E-02 -1.949291040627E+00 -1.020344504903E+00 2.721012470852E+00 2.400629752690E+00 -1.060212613371E+00 2.738293250113E+00 -5.769585419976E-01 6.154185273975E-01 1.418797848760E+00 -1.585921738577E+00 2.593132456737E-01 1.344324105196E+00 -6.264238975886E+00 1.202284658566E+00 1.622199357853E+01
 -6.580779508224E+00 -4.027586944256E+00 1.572920809548E+00 2.981165411792E-01 2.348627059036E-01 -1.958088628384E+00 -1.032582904939E+00 5.130657594016E-01 7.330719137359E-01 -3.254508551259E-02 3.658080425555E-01 5.312216372183E-01 -2.091088373621E-02 -7.858343592886E-01 -2.369387701792E-01 -1.083969909144E+00 2.940268495235E-01 -1.953405256099E-01 -1.152669065733E-01 5.545459799418E-01 -1.433416521756E-01 9.158355585249E-01 1.046542715717E+00 1.261328133748E+00 -1.214973459881E-01 4.538757970465E+00 4.814219747640E-01 1.882883786479E-03 1.049070035651E+00 -4.262767352911E-01 1.646020197562E+00 -1.045338662189E+00 7.354993105674E-01 -4.813899190326E-01 5.598918212641E-01 -6.019803832673E-02 -5.916759897142E-01 -1.343777557504E+00 3.832764642169E-01 2.108252390934E+00 -1.103175930055E+00 -2.014515821909E+00 -2.238827523311E+00 -3.559442172043E-01 -1.960140360498E+00 -6.222065433024E+00 4.220089114103E+00 4.161360692093E+00 1.843357135685E+01
 -4.347771127514E+00 -3.424348049693E+00 2.753870464080E+00 6.155309127027E-01 3.073889102231E-01 2.696898775488E-01 -1.213009615705E-01 -1.197761459642E-01 1.222065343132E+00 9.129020957095E-01 6.042090309647E-01 -6.418716666889E-02 -5.723767257057E-02 2.375266928287E-01 -3.470154009111E-01 1.412125190265E+00 -5.578913827948E-01 9.782493506072E-01 -2.841160006965E-01 5.294622113795E-01 -9.046318120485E-01 -4.395844312094E-01 3.152028347276E-01 -2.794082658383E-01 2.344119483776E+00 -1.408043070697E+01 1.267205318783E+00 -9.144012738533E-01 5.703645854379E-01 6.665526257303E-01 -1.001254328690E+00 -1.589131131761E-01 -2.987672803394E-01 1.064705338125E+00 -2.307511018854E+00 2.387626278913E+00 -1.608029070988E+00 7.813476721580E-01 -1.916350569284E-01 3.356959625478E-01 3.063287235994E-01 7.206474710151E-01 3.026154452084E-01 -1.000596988016E+00 4.205361036814E-01 4.496205971182E+00 -1.993355820414E+00 -4.893071672533E+00 -3.717703093360E+00 2.606158124521E+01
 3.418629265699E+00 1.268465364199E+00 -2.690015253120E+00 -3.109591989683E+00 -9.027973837721E-01 2.038546645459E+00 2.430809784969E-01 -6.632874766536E-01 -8.017497122554E-01 5.825471109883E-01 4.316946180339E-01 -1.001712635321E+00 9.328800265488E-01 8.118475550938E-03 7.011561748355E-01 2.402083064981E+00 -1.195467244641E+00 2.869811245948E-01 -7.882563405694E-01 -1.135807187075E-01 1.443915007222E+00 1.761284435751E-01 -2.797147187459E-01 -8.678092326234E-01 -1.901032536679E+00 9.086487260715E-01 1.478832439560E+00 3.322965848318E-01 -4.293819447643E-01 -4.047909685818E-01 3.181473529714E-01 4.081900398953E-02 -1.784868734972E+00 2.923764629744E+00 3.705694832748E+00 -1.027937204628E+01 -7.798314862428E-01 1.797224880161E+00 -6.443460756655E-01 -3.127641754101E+00 2.854670914185E+00 2.305226404000E+00 2.753366077775E+00 -7.375956347877E-01 1.421470370837E+00 2.928288963015E+00 -1.818848304205E+00 -3.537237373830E+00 -1.485863361481E+00 -3.787567267534E+00 2.410384679822E+01
 -2.280382774083E+00 -1.043078556550E+00 3.185274269024E+00 -3.242917299360E+00 3.040002309945E+00 -4.542254879136E-01 -8.692973329353E-01 -8.087277996741E-01 -5.486466216349E-01 -7.640461753764E-01 -1.718235900080E-01 1.388625257188E-01 1.094692286086E+00 4.730390317307E-01 -7.878955089379E-01 -2.114269943056E+00 -3.875944395084E+00 2.746069769429E+00 -8.722907449351E-01 -2.133198024173E-01 -1.116280276465E+00 6.220368692445E-01 -4.727545183311E-01 -7.211275619805E-01 -1.483014727702E+00 1.755331465855E+00 -6.530734410520E+00 5.414874976086E-01 2.684560244542E-01 4.275723853603E-01 7.046317895087E-01 6.718344708707E-01 -4.490801606865E-02 -2.225098294356E-01 -5.108287125115E-01 -5.747071614794E-01 3.749813068305E-01 -3.368505005671E-01 9.882328241624E-01 -7.379585756732E-01 9.103304073232E-01 -1.004853057012E-01 -8.938323975728E-01 3.317398153912E-01 9.056895162696E-01 -6.964704565139E+00 -2.353070647795E+00 1.211386827240E-01 -3.818935764468E-02 -1.035268971589E-01 -7.797415685801E-01 1.719687730640E+01
 1.172091505702E+00 -3.017701656801E+00 -7.783990959139E-01 2.663765981711E+00 -3.746542630098E+00 2.407604724517E-02 4.544966431336E-01 5.324236541371E-01 -2.677531403981E-01 -5.551987315158E-02 -4.057856701387E-01 -6.411410384345E-01 -3.905593588669E-01 -2.345148859786E-01 6.542837336036E-01 -3.624641049870E+00 -1.182617452650E+01 5.507480944095E+00 -1.394412871520E+00 -1.104746462765E+00 -1.528748299712E-01 3.624686154500E-01 -1.196525150772E+00 -2.456306724593E-02 2.394138085083E+00 -1.414293306594E+00 1.799560639041E+00 -7.416861444176E-01 -1.293902671672E+00 7.840829761624E-01 -1.135042252913E+00 1.387975215887E+00 5.105974310690E-01 -6.323509583675E-01 1.977560669038E+00 -5.609992589679E-01 4.626292480515E-01 3.854917246575E-01 1.798674681830E+00 3.796887126620E-01 -7.293610033851E-02 8.870174016240E-02 1.025085903665E+00 1.245429715344E+00 -3.293771370905E-01 -1.392185667592E+00 -1.599151147824E+00 -2.620067620209E-01 -2.014457383855E+00 -3.862381936925E+00 -2.737205480860E+00 2.293193313596E+00 2.305278763034E+01
 -2.078556450002E+00 -2.471732535803E+00 -2.521135475549E+00 2.356089639261E+00 7.183873118046E-01 -2.800904027627E-01 -1.102628141938E+00 -1.441076912922E+00 5.619778616224E-01 -4.974825354201E-01 4.366803349547E-01 7.153505396640E-01 1.157950331752E+00 1.274500716532E-01 -2.017297586761E+00 2.223289468751E+00 7.215153397829E+00 -3.028994528237E+00 1.816550801387E-01 -1.860669892916E+00 -1.024869534648E-01 -8.313984503583E-02 1.472987915534E+00 2.263433524748E-01 -6.289278619279E+00 2.770830505833E-01 -1.334626190941E+01 1.258658847626E+00 7.772178297148E-01 -3.099345449048E-01 1.462152266884E+00 1.434890769793E+00 -1.135128269908E-01 -2.201144386459E+00 -1.616503967583E+00 -6.521886193854E-01 -1.039245342666E+00 2.486768671428E+00 1.210222649990E-01 9.171797663593E-01 -2.371468600313E-01 -3.092269555069E-01 -2.956532508650E+00 -9.887131156106E-01 1.495499326266E+00 -2.137932872668E-01 1.057549371062E+00 -9.280315480382E-01 1.650924178186E-01 -2.546979594009E+00 -7.200345568182E+00 3.113112769348E+00 -4.676413889781E+00 2.742979722818E+01