#BIOSYM hessian 1
#COMMENT: Materials Studio generated
@Type: Hessian
@Units
 distance: 	A
 energy: 	Kcal/Mol
#header
@natom 19

#label
Li      Li      Li      Li      Li      Li      Li      Li      Li      Li      Li      Li      Li      Li      Li      Li      Li      Li      Li      

#element
Li Li Li Li Li Li Li Li Li Li Li Li Li Li Li Li Li Li Li 

#matrix
57        
 1.873523227856e+002
 7.721958640092e+001 1.172173935616e+002
 1.109683517701e+000 2.826425801500e+001 4.488696646367e+001
 -1.582335689017e+001 -4.188534222042e+000 6.508595436458e+000 5.999267752455e+001
 8.972500299720e+000 1.503356401083e+000 3.354509179949e+000 -4.280708401997e+001 4.517736336978e+001
 1.092359353790e+001 -3.720335773068e+000 -4.835650372165e+000 -2.782846288837e+001 2.683785406860e+001 2.274062707109e+001
 -1.044921172083e+000 4.310964544254e-001 -7.910163340878e-001 -1.869596711224e+000 8.782488360897e-001 1.434127864743e+000 1.785251306765e+000
 -4.086396349506e-001 1.602630997566e+000 4.486607840926e-001 1.397994178863e-001 -5.763618592489e-002 1.123974941440e-001 4.658236613566e-001 9.934406692334e-001
 -5.922090767756e-001 -1.664158049349e+000 -1.467259734054e-001 7.799980832759e-002 3.596653589407e-001 -2.270792763167e+000 6.977875168839e-001 6.516519736140e-002 5.332587325505e+000
 -1.593847659140e+000 9.351796341420e-001 -1.631439033454e+000 1.775835289677e+000 -1.823971027141e+000 -2.809942220299e-001 -8.276799759338e-001 -4.802981975104e-001 -1.998030362291e+000 3.266952497522e+000
 4.587556129364e-001 3.424345596747e-001 2.392046631459e-001 -2.089539079649e+000 1.210962500783e+000 2.114923483721e-001 6.575497591926e-001 2.909468394942e-001 1.224113260543e+000 -2.029304466222e+000 1.740982619423e+000
 -3.792901804698e+000 -8.670702736062e-001 -5.143240840254e-001 -5.964156123884e-001 -2.998798086388e-001 1.099431838907e+000 -8.052898740464e-003 -2.585769929859e-001 -2.460536621593e+000 3.799882314183e-001 -1.189166647296e-001 4.224467396299e+000
 2.015153384767e-001 -1.549111482962e+000 1.831902375441e-001 -6.461239147774e-001 -6.390012999794e-001 9.206627365245e-001 1.666676866158e-002 -4.759612063141e-001 -8.624321618399e-001 1.049552318419e+000 -1.017460254567e+000 1.597948118449e-001 1.847502307709e+000
 -5.578921932154e-001 2.807356695878e+000 -1.317909139258e+000 7.833667960042e-001 -1.465353333391e+000 1.258218972782e+000 -1.174725614552e-002 3.567519018895e-001 -1.773666063209e+000 2.102276966793e+000 -1.534944751647e+000 8.526866771334e-002 1.168050025053e+000 4.027617056195e+000
 1.380959339111e+000 9.794786756701e-001 7.260478204851e-001 -2.753231839649e+000 2.729909624191e+000 -1.485535059779e-001 3.734003044786e-001 2.799294456548e-001 2.291009202562e+000 -1.758943438522e+000 1.447299942811e+000 -1.435616483258e+000 -9.855826790725e-001 -2.105547215147e+000 2.789424129563e+000
 -8.522291344095e+001 -7.039253882774e+000 1.979516618819e+001 -1.506227519240e+001 2.125314187064e+001 4.318832447170e+000 -3.693432074127e-001 -8.361444964001e-002 -3.299530730072e-001 4.790247358260e-001 -4.471156999147e-001 5.997073482700e-001 -2.243968103695e-001 1.648065414561e-001 2.912761147558e-001 7.782380109381e+001
 4.598537109855e+001 1.519260600422e+000 -1.996125931527e+001 1.079820074312e+001 -8.882453326455e+000 -6.368537615753e-001 6.687386048252e-001 2.922076283268e-001 -8.992878700756e-001 -3.755197571058e-001 -4.515491091238e-002 -1.488820050001e-001 -1.152656457344e+000 -3.214269973110e-001 -1.176888005034e-001 -4.554339879885e+001 4.142670124045e+001
 8.661464348238e+001 -3.094970401797e+000 -3.437036469328e+001 1.129675756773e+001 -1.780397267148e+001 1.079340796893e+000 8.143085886262e-001 3.237730425237e-001 1.456487479726e-001 -1.016417549111e+000 9.207184368623e-001 1.359999202655e-001 -8.061014757404e-001 -5.128335465961e-001 1.430092065253e-001 -8.485045047892e+001 5.646733214363e+001 1.024710878920e+002
 -8.241070794430e-001 -6.613765229873e+000 3.133998852453e+000 -5.737953481771e-002 3.077021721308e-001 -3.766936230841e-001 5.226043992091e-001 -1.028921370747e+000 1.147812616648e+000 -1.216698168075e+000 7.094955423774e-001 5.335696402028e-001 1.398271624612e+000 -1.725287160416e+000 1.071458993977e+000 -2.076462209738e+000 3.976398406107e-001 3.797621369049e-001 1.417914773934e+001
 -2.274149125860e+000 1.815760470440e+000 2.919678213491e+000 3.397413579255e+000 -4.632459202943e+000 -9.247787345803e-001 -1.011691007539e+000 -1.048047465504e+000 -2.296833854972e+000 4.400817354666e+000 -3.318011451195e+000 -8.916009085323e-001 2.783356698341e+000 4.036882011469e+000 -4.372551535047e+000 1.241056077672e+000 -5.144382489461e+000 -7.391655837009e+000 9.700044711197e-001 1.684653749221e+001
 -1.502739615789e+000 2.765654767117e-001 2.601532451613e+000 8.238698723439e-001 -1.127455667824e+000 -3.798641851453e+000 -1.013877540596e+000 -3.100344181861e-001 1.951109821414e+000 -6.760886761284e-001 7.266019366603e-001 -2.584091578415e-001 -1.158095177724e+000 -1.206338558188e+000 8.088832745322e-001 1.704668696719e+000 -4.450884550741e+000 -4.878735776201e+000 -2.818737385189e+000 -3.323986540419e-001 6.515382613952e+000
 -2.960180800794e+000 -7.093606988254e+000 -4.102837470176e+000 -4.438470137194e+000 4.532930291161e+000 1.283688674292e+000 1.331368387825e+000 -3.201302028185e-001 3.028175372774e+000 -3.978217111460e+000 3.174510221145e+000 2.603406793847e+000 -2.527919369548e+000 -4.936805235094e+000 3.141840653409e+000 -2.316436974848e+000 4.870596531462e+000 7.537482042677e+000 2.816582168844e+000 -1.093306656823e+001 1.185420126809e+000 1.521462963570e+001
 -3.285078935741e+000 -1.650755247999e+000 1.701203922285e+000 2.716850570061e-001 7.880981995153e-001 1.471600155517e+000 8.948463196095e-001 -4.042874816865e-002 -5.478525718136e-001 -6.636009832961e-001 3.948831409086e-001 1.638062294561e+000 1.179069011032e-001 -8.789423723649e-001 -1.110943070463e-001 1.629501735142e-001 8.380413332438e-001 -6.436432352507e-002 8.157338492816e-001 -9.980353325351e-001 -6.805293827032e-001 2.349286296767e+000 4.151917533492e+000
 -1.159573800426e+001 -4.757792300794e-001 -3.444525946744e+000 1.523280267695e+000 -6.782409868119e-001 -2.029656587049e+000 6.183189435146e-001 -1.358856643382e+000 2.610742620782e+000 7.053609146798e-001 -3.231155732573e-001 2.642656766523e-001 4.237483351540e-001 -6.141101853933e-001 4.514898960534e-001 3.752903926379e+000 1.430958106718e+000 -2.780227698399e+000 2.633595415047e+000 -1.824192480964e-001 6.595087214784e-002 4.328130429207e+000 1.266706641264e+000 1.017044134233e+001
 7.301477772751e-001 1.112436851717e+001 -5.122860991715e+000 -2.036500492325e+000 -7.058101579587e-001 1.083817743887e+000 2.602917070083e-001 1.446315085133e+000 1.957483969451e-001 2.628250065082e+000 -1.522363110087e+000 -2.114888350602e+000 7.325316340040e-001 5.203261019016e+000 -5.270569435310e-001 4.515403834042e-001 -7.432729242007e-001 -6.623016722108e-001 -4.474211487051e+000 3.082965731487e+000 -8.482795051109e-001 -8.217330674376e+000 -2.476667110114e+000 -5.827713654438e-001 1.469386962703e+001
 8.331372942082e+000 -1.972803727828e+000 8.095213794100e+000 5.022538533401e+000 -1.127201430229e+000 -3.655617590395e+000 -1.754482455380e+000 4.796425708259e-001 -1.651489381493e-001 -2.732979707640e+000 1.672610526270e+000 -9.447643443673e-001 -1.985770327185e+000 -4.010872192184e+000 1.966209247207e+000 -1.753621335541e+000 -1.330852890050e+000 -8.357455671370e-001 4.547284932705e-001 -3.789004696117e+000 2.857760970906e+000 3.237757851320e-001 -5.634291938289e-001 -7.487991937960e+000 -5.601488557731e+000 1.415960895381e+001
 -1.230071124458e+000 6.865287562653e+000 -4.445687109710e+000 1.675389301821e+000 -1.408332669740e+000 4.152532372823e+000 -3.687491064454e-002 1.153881069043e+000 -5.227722046460e+000 2.901424606735e+000 -1.626057318348e+000 7.296136632234e-001 7.850310358864e-001 4.340383229483e+000 -2.378011917707e+000 6.671396137625e-001 1.577339960096e+000 2.039406310446e+000 -3.994386623822e+000 2.486715839071e+000 -3.888697985519e+000 -6.809624833674e+000 -9.766718564983e-001 -3.882990162721e+000 7.034431703794e+000 -1.912121143503e+000 1.229896528300e+001
 1.080851968148e-001 -2.397103516736e+000 -8.613548727164e+000 -3.873719608228e+000 1.584027587626e+000 2.083882054763e+000 8.054427056054e-002 -4.288597594650e-001 -9.897262222924e-001 8.934738599280e-001 -2.924083396296e-001 2.201063417825e-001 1.078282425502e-001 3.161211929262e-001 -1.426139357863e-001 -2.514594863608e+000 3.627468895403e+000 5.327567468389e+000 -3.748344123413e-001 -1.662910421904e-001 -1.021337922654e+000 7.863816115382e-001 -5.167908308003e-001 1.602369654680e+000 1.031746831119e+000 -2.689046294389e+000 1.547047631482e+000 4.521937595297e+000
 -9.774149639890e+000 -1.333218911291e+000 3.982427760882e+000 2.520662848100e+000 -9.501178382006e-001 -3.862041874030e+000 -6.089610198854e-001 -1.481423995065e+000 2.570054717783e+000 1.868102904987e-001 -1.508182762421e-001 6.977608054466e-001 6.626734601199e-003 -2.061283699640e+000 5.864558141200e-001 5.779654241875e+000 -4.911083410918e+000 -7.985098122683e+000 2.545258104912e+000 5.257645852879e-001 2.280189421327e+000 3.712934731940e+000 6.762188170842e-001 5.942467098055e+000 -3.864357076754e+000 -2.334587179536e+000 -6.304357106136e+000 -5.768893582773e-001 7.823207550706e+000
 1.243546632869e+001 -5.696108928191e-001 1.431332522744e+000 7.053635206955e-001 -2.461410825837e+000 -2.099065844408e+000 -1.090410470029e+000 -2.929207071640e-001 -1.231755460191e-001 1.035895941982e+000 -1.147587888440e+000 -3.350290998878e+000 9.404418211473e-001 1.127058148345e+000 -1.024112470578e+000 -5.340410919823e+000 7.351947755561e-001 1.985613791160e+000 -1.562637003899e+000 6.030887752594e+000 6.106700158786e-001 -6.604129302022e+000 -1.875965907116e+000 -3.109953581657e+000 8.212579678136e-001 2.035697924753e+000 -1.223069762367e+000 -7.861913296085e-001 -1.387157518114e+000 8.721325497313e+000
 5.487838551846e+000 7.174028766494e+000 1.375556237424e+000 1.713553083024e+000 -1.753112429110e+000 -2.088846055969e+000 -1.014814914341e+000 5.241834689509e-001 -3.209277655821e-001 1.576177046339e+000 -1.148664065207e+000 3.582343029873e-001 3.267698852445e-001 4.818014751939e-001 -2.797328171599e-001 -3.988692838610e+000 -9.079601788379e-001 3.169465006640e+000 -5.921258501563e+000 1.084743421576e+000 1.589195603606e+000 -2.601442186430e+000 1.393593874347e-001 -2.296216166618e+000 2.692294517694e+000 1.013437880632e+000 3.337045584988e-001 1.311821406343e-001 3.789283394782e-001 1.510209288770e+000 1.680515575543e+001
 -1.234604368824e+000 -1.078511331251e+000 3.223030024748e+000 1.933244605640e+000 1.174330762581e-001 -1.123235891187e+000 -2.988017099092e-001 -3.049113043393e-001 -2.743466680286e-001 1.567499300715e-001 -1.144582187058e-001 1.681548813705e+000 -1.840203455271e-001 -1.104418296215e+000 1.782418667044e-002 1.555206923246e+000 -1.178374216377e+000 -2.386698025240e+000 1.438961328741e+000 -1.433540030722e+000 -1.297156131569e-001 1.861028268808e+000 1.149257173718e+000 1.756571589511e+000 -1.436963231700e+000 -2.011216638361e-001 -1.985533472907e+000 -5.630494229306e-001 2.161502022553e+000 -1.906565850186e+000 -3.340863196435e+000 7.098326443971e+000
 1.460296137766e+000 -2.684465049129e+000 4.447778824359e+000 -8.178378765992e-001 1.273938116789e+000 -6.806679565516e-001 -8.571865399435e-001 4.733721544121e-001 -1.737166548641e+000 1.799440513038e+000 -1.688940267680e+000 9.174242901782e-001 1.858430870274e+000 2.096077250270e+000 -4.245790109874e-001 1.466496027525e+000 -2.354431635897e+000 7.929340631915e-001 2.210721634286e+000 -3.017372434954e+000 -4.843863535288e+000 -1.062287814103e+000 -1.318947846930e+000 -8.991292539707e-001 1.318331410053e+000 -3.656318959281e+000 1.124002996568e+000 1.995763531155e-002 6.983020001306e-001 -1.644563879784e-001 7.203900480752e+000 2.115521234986e+000 2.697017174885e+001
 -3.675723516853e+000 -2.779543366289e+000 5.755920377188e-001 1.939847299317e+000 -2.631382266791e+000 -1.480068910491e+000 5.393970624274e-001 9.352091684842e-001 -1.019367779026e+000 5.535874059586e-001 5.783222385200e-001 -1.154228862638e+000 -1.004121090257e+000 1.965026511764e+000 -5.837651629584e-001 -1.859449254931e+000 -2.406804947109e+000 -5.615728199306e-001 -1.774705342023e+000 2.016219931354e+000 2.561100308888e+000 -7.273451155734e-001 -3.593911785531e-001 -7.276114058384e-001 -8.734487071048e-002 -1.157391093021e+000 7.317437742057e-001 -8.409706871361e-001 -1.409693359094e-001 2.385278343346e+000 -2.680599586484e+000 -9.780369487412e-001 4.793043562213e-001 2.514968548139e+001
 2.064463983521e+000 -8.028534086819e-001 -6.327567591175e-001 -1.657588780231e+000 7.383157920106e-002 -3.253729041705e-001 3.620189171318e-001 -6.945057451483e-002 -6.997081208058e-001 9.433779658104e-001 -9.129242017136e-001 1.970375586742e-001 1.304845548757e-001 9.739281220998e-001 -5.883431785374e-001 -8.147761679466e-001 -3.836777962010e-002 1.012142175009e+000 -3.927820041660e-001 5.170081008781e-001 3.229169761957e-001 -8.188257158685e-001 -3.989893514678e-001 -3.449313289216e-001 1.040877581791e-001 -7.924831742256e-001 1.024793921655e-001 1.741343419189e+000 -2.183180562029e-001 7.963075648018e-001 -8.478307996239e-001 -9.348048901872e-001 1.197914382339e+000 2.829160125277e+000 1.229985167849e+001
 -1.652693558911e+000 2.127022433548e+000 5.736137054612e-001 -7.227047751288e-002 1.701468387076e-001 -4.013423417132e-001 -1.170764368426e+000 -4.785403211370e-001 1.811105644590e-001 7.583076126641e-001 -7.433042459782e-001 -2.947081455900e-001 1.962861254031e-001 -9.238666493559e-002 -2.683701430767e-001 1.889019046813e+000 1.268385750322e+000 -3.662423753784e-001 2.341036451509e+000 1.883203946233e+000 -1.298860631648e+000 -1.466944047819e+000 -1.159016587921e+000 3.686468427553e-001 1.976878647609e+000 -3.267833949699e-001 1.410473779715e+000 1.538407448185e+000 -1.818376344555e-001 -4.770037900559e-001 -2.300979397446e+000 1.377154343109e+000 -5.763834420288e-001 -1.220517892963e+001 -2.865256512440e+000 1.705883608660e+001
 2.556197185670e+000 -1.408384765165e+000 -3.804888966789e-001 -4.082433322648e+000 3.356172777794e+000 3.038526648511e+000 -2.641415418997e-001 -6.595694757964e-001 -2.008087425874e+000 9.691636063205e-002 1.490040773645e-001 -5.095168680543e-001 2.596302399648e-001 7.348388579096e-002 -3.247089293797e-001 3.841167160239e+000 -2.161577453609e+000 -3.682523590743e+000 -2.504517117359e+000 -5.587018116828e-002 1.016770499930e+000 -1.506109910251e+000 -1.874365115718e+000 -2.204346667662e+000 -2.547057200016e+000 2.013872179878e+000 1.975364496397e+000 1.115604639743e+000 -2.019138855406e+000 2.412610827646e+000 -1.498674807989e+000 -2.963512797606e+000 -2.554319476337e+000 -2.750359731451e+000 2.669286328317e+000 -1.051280006799e+000 1.352818613246e+001
 -8.862538759815e+000 2.321884509689e+000 5.377761990205e+000 -1.252944354826e+000 2.183578573732e+000 3.181498841837e-001 7.309617030910e-001 1.327271878939e-001 1.392927246262e+000 -4.576550148502e-001 9.931802365487e-002 1.053597523713e+000 5.512514096718e-001 1.706182923275e-001 3.870667243785e-001 8.609064682820e+000 -6.584937813011e+000 -9.952794140325e+000 -1.637316158172e+000 -3.499953048935e+000 9.994375257057e-001 1.570005427196e+000 2.309419022332e-001 2.061398072264e+000 1.313411302861e+000 -3.196797769062e+000 -1.658841577244e+000 -1.813008715138e+000 2.590587308920e+000 -2.963349927012e+000 4.077605559045e-001 2.443364312037e+000 3.309561651706e+000 -1.016345674943e-001 -2.041915618637e+000 -1.265266469099e+000 -2.859926054681e+000 9.013550639295e+000
 -7.048298127515e-001 3.405602735086e+000 -5.814616948631e+000 3.214985447548e+000 -3.730869394359e+000 -3.511680023080e+000 2.311826602493e-003 -6.961588518883e-001 -1.775185023028e-001 7.097309235129e-001 1.633589785677e-001 -4.055902703889e-001 -1.460500758034e-001 -1.458893055335e+000 4.982160561398e-001 -7.394467388473e-001 1.814815693901e+000 5.928648124490e-001 2.929377555999e+000 2.570975737717e+000 -1.053566509638e+000 6.158180646035e-001 -1.387631305250e+000 8.296387248232e-001 -2.272082056941e+000 5.511806583366e-001 -1.603059571662e-002 1.323214372043e+000 1.132085820481e+000 2.919863672417e-001 1.756073541009e-002 -1.315625021527e+000 -2.179770866643e+000 -1.206038100618e+000 -5.749942843594e-001 -1.369346860595e+000 1.981460404088e+000 -3.446032052410e+000 1.210974416758e+001
 -4.970260594256e+000 -2.147593100805e+000 -8.761594807939e-001 -9.346418720029e-001 -1.486626756411e+000 1.039308650784e+000 2.079252918280e+000 7.771844216666e-001 9.340311207410e-002 -2.044918209676e+000 1.862853664702e+000 3.112072338343e+000 -9.364372904974e-001 5.060005915822e-001 -5.698137315087e-001 -1.702685681120e+000 8.268875779811e-001 5.904956161829e-001 1.286605562322e+000 -1.091279264474e+000 1.328307584519e+000 3.262850222440e+000 2.026330791121e+000 -1.488803588604e-001 3.095043276860e-001 -1.423892281137e+000 -3.777995148488e-001 -1.162864018980e+000 -1.040376606313e+000 -3.662568847350e+000 -7.473561177857e+000 2.880289473623e+000 -7.962423944570e+000 -4.637431647047e-001 -4.596702968686e-001 2.488079942602e-001 2.080918969395e-001 9.933896201670e-001 -7.389727012161e-001 1.568963649980e+001
 -2.109709275808e-001 1.038968629386e+000 3.988120163335e+000 2.089340054466e+000 -7.581248013545e-001 5.759913497741e-002 -5.960347746668e-003 1.061647076121e+000 1.933696824239e+000 -1.999787748450e+000 1.029016143418e+000 -7.573371058310e-001 -1.829211805511e-001 4.174958335048e-001 2.565188278097e-001 -7.337426469356e-001 -3.711133067915e+000 -6.480664952629e-001 9.982845359394e-001 1.336401408757e+000 9.409656415672e-001 -2.798210961180e-001 -1.182875659113e+000 -3.248256265479e+000 7.804339468060e-001 1.489009931888e+000 -4.504980509600e-001 -2.372179146556e+000 -3.558862811836e-001 7.657426365610e-001 4.410271496765e+000 -2.815424971275e+000 2.698287039085e+000 -1.323005693881e-001 -6.516169805163e+000 1.771747538015e+000 -1.247420248971e+000 8.330030548856e-001 -7.072707465156e-001 -4.824567621547e-001 1.465368031256e+001
 -5.342647446249e-001 -2.374732008774e+000 1.634843204160e+000 2.165571691198e+000 -1.027772467739e+000 -5.260713522999e-001 2.353995693178e-001 5.167677444739e-001 1.451144417439e+000 -2.123595104401e+000 7.387909331329e-001 1.033123674491e+000 -1.248276841805e+000 -1.659382332250e+000 -1.318698864237e-001 -5.849273009984e-001 -9.203684663488e-001 9.729384260253e-002 -1.300560106502e-001 -1.322351255451e-001 1.425392005191e+000 2.215530645105e+000 3.833147947520e-001 -5.641433833150e-001 -1.970975098602e+000 2.065924073829e+000 -2.546178241653e+000 -1.514977206911e+000 8.706914250603e-001 -8.902676406330e-001 -6.187191778702e+000 5.454602877926e+000 -6.545609994859e+000 -1.282098673139e+000 1.460586105895e+000 8.378341510578e-001 -1.771197597149e+000 1.125637177195e+000 -1.718108920443e+000 6.433296554976e+000 1.426507654905e+000 1.645681406437e+001
 -2.682100471044e+000 -2.637086013537e+000 -9.640589999492e-001 -5.119096654507e-001 -8.251639417848e-003 8.858173196452e-001 -1.707256438979e+000 -8.248926865003e-001 -1.943088956178e+000 1.651156334565e+000 -1.198947366653e+000 1.340253217835e+000 7.518846206536e-001 1.650697363163e+000 -1.376544411430e+000 7.980495712786e-001 1.026795838505e+000 -8.687377835362e-001 -1.238933122898e+000 1.417186739936e+000 1.431991433831e+000 -1.359764273144e+000 2.185640985203e-001 1.072753817872e+000 1.103449012171e+000 -1.309732381153e+000 1.431328001277e+000 -3.377095940655e-001 4.704263440673e-001 -2.654051570796e-001 -1.500362445113e+000 -2.162371134890e-001 -1.967446298581e+000 1.067775781475e+000 -8.386542388234e-001 5.406139694837e-001 -1.048359981190e+000 9.092174261572e-001 -2.513525228204e+000 4.524742678732e-002 -2.269465459646e+000 -2.033935930480e+000 8.147715982525e+000
 2.258378477771e+000 3.345153841824e+000 -2.072756083464e+000 1.793231979409e+000 -6.904618775575e-001 -1.516681873527e+000 4.240243070625e-002 -7.468926956858e-001 -5.899001098556e-001 2.067269663410e+000 -4.165705187961e-001 -1.691988262520e+000 -6.379090656995e-001 -2.086761725112e-002 1.067771180309e-001 1.117733913883e+000 1.007312835777e+000 -6.962900254071e-001 -2.356078072266e+000 2.583254731686e-001 -1.100413571715e+000 -8.186145040855e-001 -2.022731281974e-001 1.987384432092e+000 -4.224557979529e-002 -1.244278593432e+000 5.022167413052e-001 2.331815519564e+000 1.633206301771e-001 1.396758325415e+000 -4.333194048190e-001 6.300550495961e-001 1.016753370437e-001 2.756424784108e+000 -2.016489429871e-001 -8.336193609863e-002 1.299627814203e+000 -1.843706823943e+000 1.517863380794e+000 -3.391157039365e+000 -7.739799139122e+000 -8.779247442544e+000 -1.270978296658e+000 1.742828025814e+001
 3.535089465869e+000 -1.456134792876e+000 1.240531406822e-001 -2.096183503799e+000 2.615009853870e+000 1.536837450456e+000 -2.232597147225e+000 -1.559212390164e+000 -1.930289609943e+000 1.730905760956e+000 -1.232764016949e+000 1.204495702190e+000 1.139044828965e+000 7.259867947823e-001 -1.368174488969e-001 4.817488357450e-001 1.364872941895e+000 -8.022274058496e-001 -1.655561576173e+000 -1.976919855988e+000 2.064840369567e+000 3.203428980220e-001 9.565950855882e-001 1.932945722798e+000 -7.013354831349e-001 3.875326084747e-002 -1.855625321132e-001 -8.738630202836e-001 1.549159306030e+000 -7.597861576619e-001 6.564743219961e-001 -1.111597524636e+000 -1.736766428329e-001 1.824808062520e+000 2.184223524522e-001 -6.214134065706e+000 -1.686671083812e-001 2.115968336089e+000 -1.500361345277e+000 -3.419468484481e+000 -6.303850772713e+000 -6.950170181277e+000 1.032963712789e+001 1.363938945286e+000 2.098264884478e+001
 -1.214081711685e+002 -1.395729895010e+002 -4.029169930009e+001 3.601767841247e+001 -3.686045714532e+001 -1.467735043341e+001 -1.796491886241e-001 4.620195405862e-001 2.776945802027e-001 3.775795609374e-001 -1.250686654436e+000 1.960271904059e+000 9.518119379346e-001 1.782255860720e-001 -4.256905704989e+000 -8.424411457996e-001 2.772510738829e+000 1.283422018188e+001 6.582027226236e-001 1.498631197166e+000 -1.083783946317e+000 1.924162573833e+000 3.104296286078e+000 -1.695673453355e+000 -6.691698772439e+000 1.436246921342e+000 -1.889552035885e+000 3.414813695168e+000 -1.568288518401e+000 5.008797148871e-001 -1.453868685657e+000 -1.130182775708e+000 7.252045698190e-001 5.765164426193e+000 2.258802318927e+000 -1.713348372128e+000 -6.059201593271e+000 -5.042357026573e+000 -5.550561258598e+000 4.788812254196e+000 -8.082932693750e-002 3.084103730111e+000 2.398839372379e+000 -1.136244597296e+000 -3.999502356346e+000 2.209234522091e+002
 -9.998635341870e+001 -2.577340741739e+001 1.632715716934e+001 -8.020748397734e+000 1.191349020392e+001 -8.466668547707e-001 -5.124828094191e-001 3.142166718706e-001 -6.549918954748e-001 -2.163516625234e-001 -4.868820583614e-001 -6.262245552027e-001 6.972050825467e-001 -8.801522058656e-001 6.706333674547e-001 7.390360544186e+001 -4.304576195316e+001 -8.107806267927e+001 -8.628847285258e-001 1.634044477372e+000 1.299716346250e+000 -2.831637698063e+000 1.777933484931e-001 1.925313951238e+000 -1.833259691582e+000 1.603902323440e+000 4.191435809989e-001 -2.362088619924e+000 4.450638158750e+000 -3.026608551169e+000 -2.374286466831e+000 -1.262010576644e+000 1.403785184295e+000 5.935949614833e-001 -8.773378680286e-001 7.531594775838e-002 2.375750600829e+000 6.807226045092e+000 7.801862937873e-002 -4.484603294462e+000 1.367852030239e+000 -3.300422677831e-001 1.279742360819e+000 -4.638622287709e+000 1.271177200678e+000 3.075197470010e+001 8.547386777189e+001
 -7.605063371671e+001 9.859586673443e-001 2.127078090585e+001 -1.212283385946e+001 1.912725443289e+001 3.148268937055e+000 -6.234879280390e-001 2.897301200270e-001 -5.861324038704e-001 6.771939958952e-001 -1.045900923466e+000 -9.297434361465e-003 -1.245930402347e-001 1.506742507459e+000 -1.693467091733e+000 7.769827094954e+001 -4.716858553567e+001 -8.690651369959e+001 -5.308320752785e+000 3.894939792374e+000 1.575206952960e+000 -7.502966347148e+000 -3.494336193544e-001 7.325608168501e-001 2.302261513622e+000 4.531716920189e-001 2.440169485083e+000 -4.022194524234e+000 3.715233368350e+000 -2.482104588372e+000 -1.323717533682e+000 -5.774474770133e-001 8.386777600377e-002 -1.529241962743e-001 -2.590422152696e+000 -3.819424123446e-001 2.329268674462e+000 8.523409727295e+000 -2.791833568702e+000 -3.924527063636e+000 -5.971990233866e-002 -3.284957160577e+000 4.882739899943e-001 4.921058589522e+000 3.950680839367e-001 -5.519393142093e+000 7.190319500334e+001 9.009095877032e+001
 1.699228502850e+001 -1.488456177142e+000 -3.039862946095e+000 -4.674403108068e+001 4.556915097508e+001 2.603961210001e+001 -2.248806648268e+000 -1.003334206890e+000 1.461886609447e+000 -1.342570495042e+000 9.843583771152e-001 -1.096646859460e+000 -1.366601073971e+000 -2.593613875902e+000 3.469446541943e+000 1.684083712345e+001 -8.272621595448e+000 -1.098127032820e+001 -4.988183107418e-001 -4.667502917208e+000 1.202200240281e+000 5.199372680272e+000 -2.460606813188e+000 -5.632257071622e-001 -1.033012733599e+000 1.027585297962e+000 -3.370645299572e+000 2.391051939109e+000 9.741367506719e-001 -7.882906012295e-001 -1.583459730421e+000 9.553751363229e-001 1.932046710008e+000 -3.728857487694e+000 -1.046321630699e+000 1.460539837783e+000 3.750199985059e+000 -7.181577278229e-002 -3.177255277240e+000 -5.997148934680e+000 1.241629871844e-001 2.458132582033e+000 2.598716910706e+000 -2.666913081060e+000 6.025291744920e+000 -3.607761309063e+001 7.328596239645e+000 1.343494366466e+001 5.959611688767e+001
 -1.192918422357e+001 -2.131161312150e+001 -3.696535347285e+000 4.830393124202e+001 -4.150149243076e+001 -2.775558564481e+001 -2.061307945314e+000 -2.619142127161e-001 3.999732984305e+000 5.237230781830e-002 4.937106732846e-002 -1.203933095822e+000 -1.735897512854e+000 -1.442410119182e+000 2.527681116539e-001 -2.954599053119e+001 1.908235614522e+001 3.184581749052e+001 1.783403325860e+000 -1.746449607974e+000 3.113217859149e+000 3.624045599419e+000 -2.193707883208e+000 3.586431106242e+000 -3.931785239257e+000 3.065015376096e+000 -3.800053327360e+000 -4.265444686421e+000 4.301924264294e+000 6.993538103079e-001 -6.475498180913e-001 -9.296054175417e-003 2.785232321105e+000 2.703811102810e+000 -2.262480783495e-001 -1.020522772580e+000 -1.546251627481e+000 -2.907541149253e+000 6.473229221314e+000 2.596375514870e+000 2.090345545669e+000 1.858145162372e+000 1.642162445590e+000 -4.189215227744e+000 1.460672230713e+000 4.469100017790e+001 -1.941863672570e+001 -3.533350259844e+001 -3.741518274503e+001 7.723150515361e+001
 -1.243343852847e+001 7.423534631720e+000 4.835053247977e+000 2.742481129131e+001 -2.507996817046e+001 -1.668885000738e+001 8.589030101731e-001 2.941980618000e-001 -1.161691878000e+000 1.712476437669e+000 -1.069547892071e+000 8.336580364283e-001 9.122726210988e-001 1.304453545400e+000 -2.252102786082e+000 -3.348469295180e+000 3.525687650733e-001 -3.986300193151e+000 6.992074119358e-001 4.999619357738e+000 1.061926360127e+000 -6.034261062857e+000 1.537023631231e+000 6.061355801950e-001 2.178318713024e+000 1.561893302696e+000 1.746593438776e+000 -1.534414995864e+000 1.401495614372e-001 8.663756159675e-001 3.791413459808e+000 -6.705648948974e-001 -4.537150535080e+000 1.393662395564e+000 5.011628698216e-001 -1.002152956013e+000 -2.590307268594e+000 1.933270235145e-001 2.637970155044e+000 2.127825119258e+000 -1.741273489569e+000 -3.783473291460e+000 -1.712963670508e+000 3.824399795063e+000 -3.147980415048e+000 1.257191631052e+001 2.662140173265e-001 2.781065331103e+000 -3.508211853373e+001 1.394416934928e+001 2.774411887932e+001
 1.527831921798e+000 1.170853938397e+001 -3.593012909344e+000 -8.131952942142e+000 -2.506152519227e+000 -4.196280723019e+000 -1.314523862735e-001 -2.022616348836e-002 1.689616744163e-001 -6.164758363407e-001 1.073472668890e+000 9.141258921750e-001 -7.182597521787e-001 -7.292651049102e-001 5.186278111159e-001 1.965519938957e+000 -1.287223985393e+000 -2.820870535287e+000 -1.097991879032e+000 -1.427613816977e+000 2.033121849182e+000 1.707078516878e+000 -1.130302801396e+000 1.240418285956e+000 6.709952657068e-001 -8.273943307073e-001 -1.667370560111e+000 7.297458873237e-001 5.657973097138e-001 1.935730237424e-001 -8.941454425921e-001 -8.711862213418e-001 -2.159762190558e+000 1.016942380358e+000 5.196011802763e-001 -2.729061297440e-001 -1.059656295348e-003 -1.030594614441e-001 1.854986942020e+000 1.438471083714e+000 -2.078430112090e+000 -1.578057535726e-001 9.876962739670e-001 -4.798348284263e-001 1.138179030838e+000 -1.123066066927e+001 2.162812125915e+000 3.158654090649e+000 6.810951468050e-001 -1.739646236496e+000 6.983695236770e-001 1.152127602427e+001
 3.508092371902e+000 1.828148193443e+000 2.048063985516e+000 -4.718075793115e+000 -1.364929955475e+000 3.073075038760e+000 1.464295985683e-001 -6.564284126887e-001 -1.302012481990e-001 -1.998878739806e-001 4.277713426703e-001 9.207238618329e-001 1.729683264246e+000 -3.844632710027e-001 -2.481507409238e-001 -7.582144683505e-001 -9.422401001457e+000 6.827802908984e-001 1.750492828933e+000 1.173237635784e+000 -1.035398128498e+000 -7.009415865740e-001 9.015380408615e-002 -1.616093265797e+000 -1.128374486967e+000 -6.607032600379e-002 1.434230528858e+000 -7.184503018564e-001 1.824976008423e-001 -1.147622170051e+000 5.321925190761e-001 -1.452364222294e-002 1.331256377545e+000 -1.705804386272e+000 -1.453511276733e+000 9.537737416498e-001 1.542985590723e-001 1.583428831366e+000 -1.450212882748e+000 -1.853656043641e+000 2.252134855627e+000 6.232505518864e-001 -8.943191765665e-001 -9.920628238601e-001 -1.406277252203e+000 -2.247764643123e+000 -1.678634457620e+000 9.087852408596e-001 1.088826510631e+000 -4.831620618804e+000 -1.950594508361e+000 -1.960187768959e-001 1.432028148986e+001