#BIOSYM hessian 1
@Type: Hessian Update
@Units
 distance: 	A
 energy: 	Kcal/Mol
#header
@natom 19

#label
L1      L2      L3      L4      L5      L6      L7      L8      L9      L10     L11     L12     L13     L14     L15     L16     L17     L18     L19

#element
Li Li Li Li Li Li Li Li Li Li Li Li Li Li Li Li Li Li Li

#matrix
57
 6.827066460834E+03
 1.601807724563E+02 5.212505737131E+03
 3.806762867495E+02 -7.665211444906E+01 5.277719873192E+03
 2.008862349762E+01 3.921291624055E+02 -1.624644633939E+02 6.178199241606E+03
 -1.443354270922E+02 2.802576826335E+00 5.879000681764E+01 1.521345466389E+02 3.727281333349E+03
 -1.585174977460E+00 -1.040199341045E+02 3.030410536614E+02 8.674362968556E+02 5.287812136700E+02 3.552609942039E+03
 -5.972770851414E+00 -8.229655967536E+01 1.777280740899E+02 1.441101185937E+02 9.934579896853E+01 -1.861168931705E+01 9.869812695847E+03
 6.694262232639E+01 -3.510103934306E+01 1.882056613231E+02 3.080075727547E+02 1.160021393016E+01 9.244239810952E+01 -7.588328024484E+02 4.707752679711E+03
 -7.275290569021E+01 -1.950640031213E+02 -4.450109637093E+01 3.256167892144E+02 -3.846995761946E+01 -6.090156503068E+01 -5.717765985168E+02 -2.262607213388E+03 6.451941156482E+03
 3.090382183219E+01 1.968772868042E+02 -1.249099995350E+02 -2.651758954376E+02 2.015072990377E+02 -3.394737058634E+01 -1.051312157334E+01 5.209419482241E+01 2.057096678757E+02 6.471947196331E+03
 -4.994070855482E+01 1.135098905189E+02 2.741431871127E+01 -2.204802108961E+02 -8.398472354835E+01 2.158665678263E+02 8.215190153504E+01 -6.012414984279E+01 1.378423968681E+02 -2.040773629149E+03 4.591078959079E+03
 3.640026208511E+01 -1.101471001307E+02 1.713671879208E+02 1.249579056163E+02 -2.333300438413E+01 1.220672040910E+02 4.318069169290E+01 6.877832261816E+01 -1.075904245088E+02 6.985804594551E+02 1.515423052036E+03 8.187221749501E+03
 2.660097501749E+01 1.072490243706E+02 9.400363344185E+01 8.911595596589E-01 8.709648304054E+01 -4.588735300878E+01 8.596199537154E+01 1.084093136370E+02 8.214414978776E+01 -3.776004658230E+02 -3.503407927012E+02 -9.665825057990E+02 6.319590640437E+03
 2.442047018100E+01 1.620518155879E+02 -4.885434656069E+01 -2.950416552659E+02 -3.293565190835E+01 1.679008557054E+02 6.322937626979E+01 -2.877992510811E+01 1.405671501465E+02 -3.229949100999E+02 -4.125645033806E+02 -7.513577435501E+02 1.983078525752E+02 4.967698877797E+03
 -2.264302823390E+01 -4.424681657778E+02 2.906078186222E+01 4.056480579453E+02 1.285718027607E+01 -4.494336843621E+02 -3.708748791526E+02 -2.984305719875E+02 -1.596978349733E+02 -7.948037022083E+02 -6.788370604963E+02 -2.760346121302E+03 1.005619161153E+02 6.028437691507E+01 5.176603445405E+03
 8.946792828273E+00 1.445009649449E+02 -3.129752293891E+02 -3.101968973694E+03 -1.591381991853E+03 -1.408605942206E+03 -2.567128763461E+03 -5.032049404954E+02 -3.711271872198E+02 -1.868548860317E+01 -2.298921380841E+02 -1.862263036228E+02 -1.552927390894E+02 -1.647831036271E+02 6.552423754078E+02 8.394648746008E+03
 -6.658652531357E+01 -1.157034933781E+02 -6.985470439625E+01 -1.680253293651E+03 -1.031624573252E+03 -9.403345319082E+02 -3.604359803489E+02 -6.817352834188E+01 -2.669280800979E+02 1.263489062463E+02 -8.332087197577E+01 -1.012731821116E+02 7.245670707725E+01 -3.743382169182E+01 3.287199394707E+01 2.994653026466E+03 5.563702510437E+03
 1.445047862713E+02 9.881171355685E+01 -4.916084855841E+02 -1.726279496361E+03 -8.052850682803E+02 -8.684335182785E+02 -7.471378650634E+02 -2.950784283627E+00 -1.477110505519E+02 -2.998992391559E+01 -2.307548018812E+02 -1.925084307891E+02 -1.733688007726E+02 -1.321515858120E+02 3.725712952051E+02 1.774546134710E+03 -1.166843905705E+03 7.705213903920E+03
 -1.604837919507E+02 3.967028459109E+02 1.342679702630E+02 -4.056949081767E+02 -1.752178780530E+02 -2.240936863594E+02 -1.022596352203E+03 7.726550413603E+02 -1.503101123026E+03 -9.615495172786E+01 -2.093665983849E+02 -8.481953184047E+01 -1.038004569436E+02 -1.633686766736E+02 3.259197146262E+02 -1.592550975388E+03 -1.217955570380E+03 1.650798982690E+03 5.629401197312E+03
 2.317514802791E+02 -7.342274515287E+02 -3.958574971863E+02 6.882403263670E+02 -1.553696672311E+02 9.285962856368E+01 8.787361336770E+02 -5.802766869459E+02 1.180750629654E+03 3.327366784640E+02 2.075919881593E+02 -2.981720309857E+01 2.341574573923E+02 2.435344267291E+02 -6.813411619141E+02 -1.771637023571E+03 -1.591293956012E+03 1.402297017048E+03 2.318266233129E+02 4.750656954778E+03
 4.723049285232E+02 -8.983655114974E+02 -1.205127101883E+03 1.564455945653E+02 1.681290692731E+00 1.966005058013E+02 -1.526758814273E+03 1.273664498197E+03 -2.524445211223E+03 2.805721472561E+01 3.219121764675E+01 8.603524148564E+01 6.808201443074E+01 1.179057944039E+02 -1.622234803920E+02 1.228294143850E+03 1.059945553101E+03 -1.232772631843E+03 -1.671674075832E+02 -1.300499502482E+02 6.396509815894E+03
 -6.190119935109E+01 -3.655868503426E+02 2.319586652299E+02 3.843209514740E+02 2.627774973318E+01 -2.502139449058E+02 -2.075517228370E+02 -1.197994616399E+02 -1.890003784752E+02 1.138801871430E+02 3.505525459832E+02 6.180623437729E+01 6.733262611132E+01 2.951312608802E+02 -4.899756171303E+02 3.274046306607E+02 -1.258118085884E+02 2.592756669920E+02 2.596691758748E+02 -5.502154539298E+02 -8.397862768574E+01 5.527602034563E+03
 1.618348453977E+02 -5.235241992026E+00 -8.284661104796E+01 -1.864980729230E+02 3.602626693242E+01 2.808490842645E+01 -6.254034215066E+01 -5.720410220224E+01 6.801997872694E+01 -4.569804810539E+01 2.875562704740E+01 8.317529957501E+01 -7.147034433406E+01 -4.279048056702E+01 2.277680461685E+02 -1.426263504400E+01 5.054030746091E+00 -8.148503343537E+01 -6.641391878943E+01 1.317887609092E+02 -5.173046707205E+01 2.555210737083E+02 4.267213394965E+03
 -5.285414085154E+01 1.353010717743E+02 -7.610102869189E+01 -1.606415045962E+02 -6.392416215130E+00 -7.383323275422E+01 -5.410687680707E+00 -7.741497991468E+01 2.523318186735E+01 -1.116829906593E+02 -6.817593993963E+01 -3.602998061434E+01 -9.491813340004E+01 -8.477631271298E+01 9.418332440632E+01 3.236222439933E+01 1.103115574284E+01 2.105501272334E+01 3.482292203809E+01 1.052249189507E+02 7.706793431656E+00 2.096656732537E+02 -2.370036823977E+01 4.609256079716E+03
 4.636585280596E+01 2.470150246516E+02 -2.403817516325E+02 -4.870432228544E+02 5.573455934498E+02 6.918061831479E+02 1.417713796402E+02 1.106522297092E+02 1.368256685583E+02 -1.086352575385E+03 6.045480412639E+02 -1.349934789698E+03 1.522881723555E+01 -2.196508763127E+02 4.293607246742E+02 -3.294792894387E+02 2.777783957149E+01 -1.517416581432E+02 -1.241346996519E+02 4.102208750053E+02 6.154629433152E+01 3.524097047059E+02 -1.332721685414E+02 -9.920250186149E+01 5.693078383864E+03
 -1.282799138326E+02 2.287819852071E+01 -1.336708539676E+02 4.324902437309E+02 -1.350403636224E+03 -8.217831116684E+02 1.005573066527E+02 5.844497478256E+00 1.192011191264E+02 5.239709253942E+02 -4.793359307252E+02 1.033983792284E+03 -7.047698858955E+01 -8.961139323661E+01 2.663897079463E+02 -4.432766163326E+01 -3.343057307570E+01 -2.372701942806E+02 -1.477116092262E+02 2.553118024332E+02 -2.261439312189E+01 2.468298120480E+02 -6.619349710013E+00 -5.716863127198E+01 1.485707352582E+02 4.113349292685E+03
 2.999299774056E+01 2.763804599600E+02 -2.391852108030E+02 -4.955975999681E+01 -8.579517297147E+02 -5.965096645147E+02 1.431675927784E+00 -3.030072878096E+01 2.052836991392E+02 -1.660071729940E+03 9.170964898925E+02 -2.146817504823E+03 -6.754367370960E+01 -2.159555684017E+02 3.760797503188E+02 6.143751367994E+01 1.267515404892E+02 -5.189078192479E+01 -1.489167521272E+02 2.526765073116E+02 -3.599832807969E+01 3.696496819920E+02 -9.467890501935E+01 -4.396297380651E+01 1.681619219742E+02 -4.181063551032E+01 4.545650021219E+03
 -7.462304204828E+02 1.308598179418E+03 -9.033461679640E+02 -5.791307419646E+01 3.680284921036E+01 -1.585050776554E+02 -7.373463356836E+01 9.134880593956E+00 3.590420897451E+01 -1.493589129256E+02 -2.237282416287E+02 -8.962961575818E+00 -1.060124903823E+02 -6.292616314326E+01 2.529817475940E+02 1.039914387944E+02 2.179126566627E+02 3.526181524294E+02 2.187996812954E+02 -1.449605226036E+02 -2.271474546708E+02 -2.472022073380E+03 6.144269720251E-01 -1.962804583060E+03 -1.118974741958E+02 -7.930912305670E+01 1.719542755139E+02 7.573962873967E+03
 1.256430795930E+03 -2.125457642240E+03 4.819145934693E+02 -1.191449448118E+02 -3.290623640033E+01 2.915084775001E+01 -7.573627752158E+00 -8.249107537097E+01 1.077809834633E+02 -6.747560941955E-01 -7.268458449250E+01 1.045306342213E+02 -7.879787217842E+01 -4.156508824736E+01 2.090063961593E+02 -5.632223171708E+01 -4.795164281202E+01 -8.679014645355E+01 -1.169612702530E+02 7.947735109864E+01 2.281479008847E+00 7.141138931101E+01 6.582569065158E+01 -1.904996390630E+01 -1.390076198796E+02 -9.721206127950E+00 2.162849831846E+01 5.395540557350E+02 8.170712059942E+03
 -2.932723237217E+02 9.607632457854E+02 -2.296193822241E+02 -2.059064879715E+02 -1.411311174962E+01 2.037454012722E+02 1.809082015603E+02 8.490378863871E+01 1.209072414559E+02 -5.838412623289E+01 -1.067038718428E+02 3.167347774036E+01 -4.285327557717E+01 -1.412456760689E+02 2.660306172849E+02 -2.945414307145E+02 5.467802815963E+01 -2.364984500024E+02 -1.498729852396E+02 3.480426894918E+02 2.643283233428E+01 -2.187741508025E+03 -1.178177891371E+01 -1.777789473047E+03 -3.892465883958E+02 -1.037318147256E+02 -1.840890426031E+02 2.636981802940E+03 -7.899519152391E+02 4.389526131002E+03
 -5.004442919760E+02 -1.208365783904E+03 5.284197323618E+02 3.773034955268E+01 6.698430234668E+01 2.762613823815E+01 -6.102240185294E+01 -6.989227707346E+01 -1.053346259888E+02 -8.281510611626E+01 1.345364964140E+02 5.253342844808E+02 6.100429231761E+01 1.189785177703E+02 -3.455527079350E+02 3.339829194974E+01 -1.233144764244E+02 -1.276134676833E+02 -6.895718280974E+01 -8.567349745329E+00 1.905791997641E+02 -2.675970553346E+02 7.080245308920E+00 -1.346093548793E+02 -3.918861472188E+03 -7.648070864393E+02 9.783281427492E+02 -2.995964686132E+03 -2.468639954603E+02 -3.303826858731E+01 9.325230997167E+03
 -9.650334108278E+02 -2.562795207899E+03 2.034891602706E+02 -1.358503864192E+02 4.947524811933E+00 8.990330173136E+01 8.609191325114E+01 4.013273634963E+00 6.840165940548E+01 -3.142701959400E+02 -3.571060863556E+02 5.383018897374E+02 1.206925592764E+01 -6.624188332603E+01 2.229578337438E+02 -1.158385191959E+02 -3.757075546699E+01 -1.257260333619E+02 -9.207470330284E+01 1.810658036940E+02 1.270762956634E+02 1.938897646044E+02 -4.189665938341E+01 5.912890278017E+00 -8.727166325084E+02 -1.674602696436E+02 2.935317827424E+01 -5.050945263817E+02 -4.050407856378E+00 -1.490537462918E+02 -2.001097577718E+01 8.046241036520E+03
 2.263088603034E+01 4.927008008212E+02 -1.326400355571E+02 -2.413056456478E+02 -6.978058631434E+01 3.740833592708E+01 -2.221346352015E+00 -1.053392846121E+02 1.301130262348E+02 2.646866899236E+02 4.860019660186E+02 -1.207891105962E+03 -3.186518093152E+01 -9.049671727273E+01 2.707850133549E+02 1.452996993190E+01 -3.276399407860E+00 -1.359854877387E+02 -1.545660013129E+02 1.372570674758E+02 -9.422928386118E+01 3.027229365411E+02 -1.966700309631E+01 9.933107690235E+00 1.243762166695E+03 2.654835535796E+02 -3.196006553491E+02 -8.522905681230E+02 -1.099133955312E+02 -2.656407685312E+02 -6.363864126949E+02 -1.495229507767E+03 2.945029721548E+03
 3.237908190176E+01 -8.557320549790E+00 6.020168896897E+00 5.329689362790E+01 4.175316467685E+01 -3.158956551557E+01 3.787564178897E+00 3.420845160271E-01 6.093802946952E+00 -1.644165103746E+03 8.002277139681E+02 1.404261515140E+03 -8.211941814286E+01 4.070590755322E+01 -1.134713867785E+00 -3.132572044688E+01 1.732510887053E+01 -1.644623850291E+01 2.827328308415E+01 4.110447846316E+00 2.977490083900E+01 -2.169836091385E+02 -2.261354457663E+02 7.159022423105E+01 -1.425585264013E+02 1.773815911872E+02 -1.465943322616E+02 -6.342926672840E+02 -1.259334296883E+03 4.210576860242E+02 -8.250315946439E+02 1.162071589089E+03 -7.338434772113E+02 3.963261700648E+03
 8.624013894082E+00 2.496086890337E+02 -1.961749838665E+02 -4.806989689123E+02 5.539380667725E+01 3.591902476657E+01 4.571392942639E+01 1.519315161648E+01 3.515949287021E+02 5.751759729241E+02 -4.820907949391E+02 -7.276070314168E+02 -1.341224636337E+02 -1.671353963423E+02 4.444295180244E+02 -1.127490742297E+02 1.537409041525E+02 -2.286502785357E+00 -1.849702524285E+02 4.577961773806E+02 4.453892703203E+01 2.421937841353E+02 -2.636956730684E+02 -6.842909464543E+01 -1.433215560337E+02 -2.526454204283E+02 -2.044348357714E+02 -1.290961804210E+03 -2.586142926486E+03 3.820809661417E+02 1.422336407432E+03 -2.128877791058E+03 8.738800363432E+02 -1.602964947205E+02 5.446603190706E+03
 3.972783767777E+01 -1.132595205397E+02 -4.948267425754E+00 7.288441850156E+00 -7.410853374492E+00 -1.103233424200E+01 3.781222146569E+01 -9.915427765482E+01 4.304321827838E+01 1.291288254483E+03 -4.726277809191E+02 -8.518284158620E+02 2.007707562523E+01 -1.522469817870E+02 -1.860948660806E+02 -2.384930914586E+01 -7.588631881878E+01 -9.219001085051E+01 -4.807475995091E+01 4.893073662923E+01 -4.795339091954E+01 9.639930654489E+01 1.258348053587E+02 8.920661024786E+01 -2.262616407061E+02 1.737194865699E+02 -3.215348305245E+01 2.411671756077E+02 1.024406710469E+03 -3.056439771798E+02 -6.175273701787E+02 1.336626369022E+03 -7.238643957934E+02 -2.212571532761E+01 -1.523783764443E+02 4.316015288862E+03
 -4.875067643104E+01 -1.491090961697E+02 7.269678695986E+01 2.079285101650E+02 3.553460562817E+01 1.344730984918E+01 -6.029078594027E+01 5.156308172395E+02 -7.877918900722E+01 -1.279867550817E+02 6.306481105831E+00 -1.235180063124E+02 -2.293863918200E+03 -1.758219032550E+03 5.885226908237E+02 -1.356868729735E+02 8.707182029211E+01 4.645116389624E+00 -2.984716545972E+01 -2.217120879589E+01 -1.047132536596E+01 -9.954377425227E+02 2.269051857529E+02 9.856814011741E+02 2.051176197714E+02 4.873189564667E+01 1.312556618919E+02 -6.101322812011E+01 6.244750976417E+01 1.129638474913E+02 -1.043990351280E+02 7.740076570100E+00 -9.047658218807E+00 3.746392942629E+00 6.165006917109E+01 -1.040427339957E+02 7.134035582842E+03
 5.008947396837E+01 -6.172481420028E+01 -1.579865544456E+02 -1.646380961220E+02 6.397787406125E+01 -2.345053174033E+02 1.923367733747E+02 -2.243690200961E+03 3.360903252151E+02 -1.801882080262E+02 -4.099651642332E+01 1.095956575796E+02 -1.925453279714E+03 -1.376494043601E+03 5.818182120006E+02 2.490605589749E+02 2.777096533600E+01 1.396394431330E+02 4.258469991385E+01 -1.887892914452E+01 -5.413744519624E+01 1.269447446639E+02 -1.964247933022E+02 -3.408142549125E+02 1.348881560981E+02 -5.182933921392E+01 6.622697491469E+01 2.135385199580E+02 8.503684322449E+01 -5.442785854807E+01 -1.482722838401E+02 2.032991357192E+01 2.760242580069E+00 8.738840391635E+01 -1.069381986163E+02 -2.228265987390E+02 1.142274476253E+03 9.952262648542E+03
 7.869659006440E+01 5.696033948216E+00 -5.967829147286E+01 7.550821827556E+01 6.023202013414E+01 -7.111863122335E+01 -1.463671515042E+02 5.928881883025E+02 -2.234688439461E+02 -9.596529717207E+01 -1.862955443164E+02 -2.342610835818E+01 9.031684934154E+02 5.217391750362E+02 -3.474949676022E+02 -1.288599843755E+02 1.689226863482E+02 1.207537519463E+02 1.905406997652E+02 -1.202790903741E+02 6.262014600212E+01 8.778703503467E+02 -3.955353928921E+02 -1.433316064716E+03 3.113899257216E+01 -7.223653731518E+01 -7.104895185864E+01 3.086192304322E+02 -1.170943567206E+02 -1.582814893552E+02 -1.929858004364E+02 5.370351650221E+01 -1.051275613730E+02 4.193697351665E+01 -4.475143916097E+01 -1.433740044138E+02 -3.093658931500E+03 8.428624740245E+02 4.488755399962E+03
 -1.889165530262E+03 -8.083736608335E+01 -2.762344883548E+03 -1.932048075675E+02 1.208605940043E+02 -3.840867672857E+02 -5.412786072469E+02 -4.622263435158E+01 7.325397313901E+02 -9.773555744510E+01 6.468810987269E+00 -1.871775689901E+02 -2.114395315603E+02 -1.576117764476E+01 1.600982955116E+02 3.832085662175E+02 2.132748892436E+02 7.058025701658E+02 -1.596573316274E+03 9.886466933851E+02 2.971128107625E+02 -6.768089638569E+02 9.498977872694E+02 -1.410972039734E+02 2.355603534401E+01 -1.967703413845E+01 2.100657286218E+02 4.225683204221E+02 -1.498329846527E+02 -2.146942437961E+02 -3.575415015077E+02 -1.101129423474E+02 -3.212535956604E+01 2.060356639038E+01 1.066338392968E+02 -1.188198544217E+02 -2.193482726431E+02 -3.761378084216E+01 8.948036270591E+01 7.058629608189E+03
 1.562046757438E+01 7.514793185325E+01 -7.342157062787E+02 -2.661147043555E+02 5.869748649834E+01 -5.191131608966E+02 -2.313127449319E+02 -4.015942466400E+02 -3.646998860473E+02 -6.879701442583E+01 -7.681736575298E+01 -2.308181495549E+02 -1.689276761511E+02 -1.362876815187E+01 2.255815396153E+02 5.389359131636E+02 1.681889551375E+02 6.447710493026E+02 1.747242180698E+03 -1.308182664502E+03 -8.548955584404E+02 1.115181748263E+03 -1.509227950519E+03 4.022113234256E+02 4.726171567815E+00 -8.501873400527E+01 1.705726377264E+02 2.937964321497E+02 -3.020148555357E+03 -1.235291348450E+03 -5.087231197585E+02 -2.498901812566E+02 1.264996133635E+01 -1.772099798468E+01 3.458214359082E+01 -1.817854509721E+02 -2.755829726898E+02 -6.312160089119E+01 4.558355467215E+02 -1.286988886437E+03 6.966372426061E+03
 -1.951216448957E+03 2.616089539489E+02 -2.978587648171E+03 -4.219056059452E+02 -3.126064590906E+00 -1.691726834788E+02 6.633296158660E+02 -6.822718006078E+02 -1.776296744064E+03 -1.528107710867E+02 -2.226731716995E+02 -2.473894661905E+02 -2.531505141366E+02 -2.385962614737E+02 6.881198997936E+02 1.963950952145E+02 1.052955222628E+02 1.858865764332E+02 8.619961078773E+02 -4.340660911168E+02 -4.830899387499E+02 2.260210670667E+01 2.087404579783E+02 1.221272160923E+02 -3.447856225218E+02 -2.102211781460E+02 9.333297755502E+01 2.139442638375E+02 -1.322732051234E+03 -8.611003076694E+02 -4.424621130099E+01 -3.074008666085E+02 -8.544794657264E+01 9.796609595957E+01 1.870147328406E+01 -1.221182407686E+02 -1.463277530371E+01 4.873204918180E+02 -2.916205895845E+02 3.456005810776E+03 2.561590442531E+03 8.388946006653E+03
 -2.592865367113E+01 2.033738700310E+01 1.543850547076E+02 -6.932595089785E+00 -1.163621444301E+02 -7.247236843092E+01 -1.582323529792E+03 -1.377270323154E+03 1.566366660226E+03 4.839310264709E+01 -7.607525580135E+00 -5.222314406266E+01 1.509481880412E+01 2.210670695344E+02 -9.391589218040E+01 -8.893285872093E+02 5.350570206622E+02 -1.628392902816E+03 -1.371137280669E+02 7.538946982869E+01 -2.643694427614E+01 1.734142257810E+01 5.908346295134E+01 -1.833697560809E+01 3.874189910894E+01 2.006830464754E+01 5.958273942247E+00 -1.180897558128E+02 4.430358901159E+01 4.879842027158E+01 7.487489014250E+01 2.784432524152E+01 5.545563069046E+01 -1.888975962556E+01 -1.518123678493E+01 2.962504287226E+01 -1.740958708650E+03 1.213849110672E+03 6.000643131270E+02 -1.860498467946E+02 -1.265671968365E+02 -1.577775996876E+02 5.120284663526E+03
 -4.331213982626E+01 -5.321775399053E+01 2.944199501337E+02 4.062306051234E+02 -1.106173585445E+02 1.389769347850E+02 -1.025995688331E+03 -6.810848016961E+02 8.408689748651E+02 2.096067828141E+02 -3.916050143097E+00 -5.812568665378E+01 2.672571034337E+02 -2.393881433440E+03 -1.784794453579E+02 4.536489622947E+02 -4.357870672955E+02 7.691709188798E+02 -3.444333728760E+01 -2.186375979161E+02 4.840929332570E+02 -1.587992293517E+02 1.031166051901E+02 8.394211079355E+01 5.516442214222E+01 1.374679949195E+02 1.343696980589E+02 -1.581913592239E+02 -3.820808226473E+01 1.086075673550E+02 1.000208915636E+02 7.527219654693E+00 2.952511718665E+01 -2.220107253188E+01 1.757209683962E+02 1.843951637851E-01 1.438592422589E+03 -8.500632827571E+02 -5.646353980079E+02 -1.889055023325E+02 -1.175525565120E+02 -1.641630699463E+02 1.753756051659E+02 5.801547249302E+03
 -4.334304918025E+01 -4.785817376380E+02 3.127625132912E+02 4.867617775867E+02 -7.125296803394E+01 -2.470072543271E+02 1.398675235810E+03 1.279922160504E+03 -1.743150482650E+03 2.330100678364E+02 3.303399248635E+02 -1.579214854803E+01 1.204532197967E+02 2.167164218934E+02 -6.640050668480E+02 -1.210621865391E+03 1.195135155718E+03 -2.697076833808E+03 1.626317591730E+02 -5.356552997756E+02 -2.224080707392E+02 -6.402895297958E+02 1.130123668148E+02 1.071088427448E+02 4.948789963157E+02 2.497007278060E+02 3.455568578692E+02 -5.216995591279E+01 1.256614263396E+02 4.138473213324E+02 -1.703874354467E+02 2.293108687862E+02 3.072007667714E+02 -5.646960886807E+01 4.636519576982E+02 5.620307186638E+01 5.732269767518E+02 -5.902942727010E+02 -4.538904591027E+02 -2.681676419200E+02 -3.035085962547E+02 3.280951921781E+02 -1.275640989013E+01 -8.254869626562E+02 4.993362186327E+03
 1.018845657146E+01 -1.756967600860E+02 6.319198677853E+01 1.535995361823E+02 -3.382218677472E+01 -1.618857478817E+02 -1.201682609788E+02 -1.509312837692E+02 -1.743680364972E+02 -2.601993262824E+03 -1.280768140206E+02 -7.802887891705E+02 -1.666598245676E+03 4.458334592271E+02 1.336849240649E+03 2.328625045644E+02 -1.006822959520E+01 1.794083776529E+02 2.303380420610E+02 -3.928148077510E+02 -1.071466199137E+02 -1.881903300801E+03 -1.122090329866E+03 1.391965278720E+03 1.594123348040E+02 4.859158599184E+01 2.619392385918E+02 1.524066685034E+02 9.017579842428E+01 1.651062198868E+02 -1.767648710392E+02 3.253468536919E+01 1.128298609321E+02 -3.878089917102E+02 -2.315645459784E+02 -9.947694115202E+02 -1.055599784186E+02 4.253665733430E+02 1.740802236580E+02 1.507255219194E+02 2.738286049343E+02 4.277318271971E+02 -7.036012812868E+01 -1.759222454417E+02 -3.434536375906E+02 6.565856704981E+03
 1.134759106128E+01 6.933432325421E+01 1.760421712127E+02 -8.956241762253E+01 -8.057215122385E+00 2.015200285236E+02 2.468772819918E+02 -4.228188241400E+01 1.040233512566E+02 -3.679849068894E+02 -9.214480558846E+01 -9.809010279149E+01 4.349954182018E+02 -1.895356327377E+02 -3.494110273774E+02 -1.484913197470E+02 -5.583616141840E+01 -3.021790188006E+02 -1.176392625506E+02 1.664639566460E+02 1.195293440101E+02 -1.253089167262E+03 -9.335426808316E+02 9.253519239144E+02 -1.819345529904E+02 -1.701426533690E+01 -1.755442228770E+02 -2.943248683610E+02 -2.534882053600E+02 4.385347085384E+02 2.201094708096E+02 -1.051578059465E+02 3.989629877111E+01 -5.783625357100E+02 -7.144365318690E+02 -1.038084370950E+03 2.178964093961E+02 -3.013976803446E+03 -2.003772823333E+03 -1.024528900187E+02 -2.634758710616E+02 -1.449887660196E+02 1.948492989467E+02 -1.644850277495E+01 3.014419467327E+02 1.484725426628E+03 5.462732140089E+03
 -1.997078745143E+01 -1.949606417660E+02 1.717675134772E+02 2.611226364432E+02 -6.678923998052E+01 8.063104927299E+01 1.493459623814E+02 -1.765053162850E+01 -1.135267734774E+02 -3.008796981715E+02 -8.356566889418E-01 -1.158266806381E+02 1.711846588351E+03 -2.401877624342E+02 -1.524473567901E+03 -2.520194146228E+01 -1.138090179051E+02 -1.053212710709E+02 5.606777581714E+01 -2.022702421156E+02 2.522988238737E+01 1.072173554496E+03 1.014476540141E+03 -9.390031692130E+02 -5.496846702715E+01 1.371389919153E+02 2.119158249707E+01 -1.486947789359E+02 5.409378188686E+02 -1.242636678323E+03 -1.162837535444E+02 8.463744680157E+01 -6.826662744541E+01 -1.015758265773E+03 -1.151349576297E+03 -1.907953404635E+03 1.898478050273E+02 -1.568824515148E+03 -9.984806474843E+02 -1.679307625810E+02 -8.003073373587E+01 -2.349960777105E+02 1.942435209266E+02 -1.231560348905E+02 -1.039036622389E+02 -1.622365305818E+03 1.884528093763E+03 6.953163002875E+03
 2.982570189861E+00 2.222914662011E+02 2.642329099665E+02 -1.259381420380E+03 9.738190709258E+02 -4.552694436619E+02 2.783055256173E+02 -5.933075860372E+01 -8.194797473157E+01 -3.662928870416E+02 1.134937701216E+03 6.110375121609E+02 -1.848144903308E+03 1.216859449835E+03 -1.296851223434E+03 -6.207789628537E+02 -3.860929904711E+02 -5.999787949258E+02 -2.453594859184E+02 2.207224098146E+02 1.939088336698E+02 3.036264146980E+02 -1.769047429305E+01 -5.961609935634E+00 -4.270691969361E+02 -8.863067312131E+01 -4.708715297108E+02 -3.878334710794E+02 -5.821461166535E+01 -1.112707232949E+02 3.183755450875E+02 -6.166521144474E+01 3.348629218321E+01 -6.016188050234E+01 2.846537295252E+00 2.607637301133E+02 -1.937641385484E+02 3.553623352002E+02 -1.690579354779E+02 -2.163126435433E+02 -3.015418781203E+02 -6.588792802501E+02 -5.447620186045E+02 -1.195867824735E+03 -2.039811492828E+02 -2.307985154693E+02 -2.464374401408E+01 -7.224049481231E+01 5.008063813438E+03
 -5.362364482815E+01 -4.218273236661E+01 1.070776607976E+02 1.374791826737E+03 -1.128042761232E+03 9.132909239199E+02 -6.036324869746E+01 -7.165178466623E+01 -2.754614901090E+01 1.020286207878E+03 -2.760647831260E+03 -1.334145457306E+03 1.277540890240E+03 -6.578854786859E+02 7.406526958913E+02 6.315000386265E+00 -2.188703253208E+03 3.806313661674E+02 -1.172140033510E+02 1.578466497479E+02 1.226850403576E+02 -1.588452534959E+02 -4.321196234616E+01 -4.164935571822E+01 7.813361206926E+01 -2.046525241345E+02 -5.618140115104E+02 -9.064130692489E+01 4.635115045205E+01 6.058590728705E+01 -4.176956266364E+01 1.161698782279E+02 -4.703214243454E+01 6.714488074371E+00 -1.248595360639E+02 -1.504283971818E+02 -5.353345772982E+01 -2.832613359180E+02 -9.687195691689E+01 -2.889808242487E+02 -3.723162439657E+02 7.514758466917E-01 -9.569809343545E+02 -1.168739904725E+03 -1.146999300970E+03 -1.011937224036E+02 7.796208550584E+01 2.800568622297E+02 -1.982078500222E+03 8.901514586972E+03
 -9.066905169751E+00 6.528875999593E+00 -5.808631989309E+02 -1.514666624129E+03 1.111836501854E+03 -1.207653655480E+03 -1.309072888008E+02 -1.399658387847E+02 1.160675362142E+02 6.822526639653E+02 -1.761748937753E+03 -9.855081275203E+02 -1.748720716769E+03 7.784134848865E+02 -8.171002262628E+02 3.980899800266E+02 6.886420624031E+02 3.780011436978E+02 1.887630371923E+02 -3.227136498403E+02 -2.229459258277E+02 2.983092803323E+02 5.758865924913E+01 -1.588125617712E+01 -4.948540189475E+02 -6.043072356243E+02 -1.769188412665E+03 5.062399939537E+02 6.616245405005E+00 -2.905458742184E+02 -2.645392500544E+02 -2.001905373080E+02 -2.845234127782E+02 -4.551075605102E+01 -1.711539339842E+01 -9.225488404146E+01 6.854767115492E+01 1.939606761352E+02 6.678999917607E+01 7.874745273489E+02 8.231460333434E+02 4.826306598954E+02 -9.074449703762E+02 -1.239938688618E+03 -9.241294244735E+02 1.517167873301E+02 -2.584688208934E+02 -4.803605040761E+01 2.491019729773E+03 4.579209761455E+02 7.177446305789E+03
 -3.533549994050E+03 -7.613755060664E+02 2.205299009473E+03 -1.718909588093E+03 -2.414362020311E+02 1.895055887239E+03 1.163225877167E+02 1.497797370716E+02 -2.804643584336E+02 7.561410532656E+01 1.282854537106E+02 3.343291565824E+02 2.146035754172E+02 9.569890510899E+01 -3.958988936422E+02 -4.316029229781E+02 -1.260283550855E+02 -1.522453113018E+02 -8.545378702884E+02 -8.265353548334E+02 -4.159053719020E+02 -2.039994244936E+02 1.435579599926E+01 -1.782393459103E+02 -2.976914807593E+02 -5.883737852628E+02 -1.789368024825E+02 -5.693018230280E+02 8.935985928726E+01 2.300449712181E+02 -3.822802451734E+02 1.460468881468E+03 3.639707706250E+02 -6.277607724184E-01 -9.491826171109E+01 1.449739477146E+02 1.386343074749E+01 -2.624333000808E+02 -1.090342395754E+02 -1.058740653297E+03 -9.148848730422E+02 -7.356029599435E+02 1.656603919614E+02 2.139391194246E+02 -5.082797234729E+00 -2.320570078516E+02 2.525698454488E+02 9.697376721704E+01 3.577395463942E+02 2.008189756587E+02 -6.610290790834E+02 8.524986523159E+03
 -6.556006540439E+02 -9.459367918951E+01 1.207342654937E+02 -3.013005559627E+02 -4.083836037666E+01 1.232064009282E+02 -1.010261559291E+01 -9.992768927089E+01 -4.205697034244E+01 5.653674597900E+00 -2.318025597018E+01 3.299281805445E+01 -3.246438938823E+01 1.031520250775E+02 -1.981793796015E+02 2.907458218723E+02 -1.403949741626E+02 -2.985363255254E+02 -8.564970375813E+02 -1.735048418214E+03 -1.394313750956E+03 -1.640168578312E+02 1.057057168956E+01 3.472836066224E+01 -7.498526663219E+02 -1.887566256317E+03 1.061091254396E+02 2.551374595791E+02 -1.114305042679E+02 1.487590558360E+02 1.122984943165E+03 -2.726082190938E+03 -5.093851338189E+02 1.547881964997E+00 8.911165021891E+01 -3.680833946694E+01 -3.765602076070E+01 -6.347185966380E+01 1.367601303321E+01 7.522278523488E+01 7.089102699869E+01 2.829528502928E+02 -8.954832703797E+01 2.459484085455E+01 -3.247480464963E+02 -7.327262726199E+01 -2.418335067324E+00 -5.396774393318E+01 9.488504045125E+01 -2.175647131938E+02 3.912590088936E+02 1.247007322670E+03 6.920298816005E+03
 1.353512104066E+03 5.635178348592E+02 -6.211914839649E+02 1.352983573739E+03 1.910484960538E+02 -9.008278809917E+02 1.830152400434E+02 9.945428615398E+01 4.579706328978E+01 -1.285035452838E+02 -6.072428700121E+01 -5.189390109499E+01 3.582821996359E+01 -1.362344283080E+02 2.629140776670E+02 -7.541003750868E+01 -5.540463009376E+02 -2.305981257820E+03 -1.042400729789E+03 -8.324910714783E+02 -8.343312378754E+02 3.154747883941E+02 -1.286318549245E+02 -1.291690082231E+01 -1.119655659196E+02 -8.013207390067E+01 -8.139342379855E+01 -1.298228016538E+02 -1.469013637322E+02 -1.058213459456E+02 4.966175776101E+02 -8.486235050392E+02 -3.126968549506E+02 -3.644853671974E+01 -1.652692526356E+02 -1.082207086531E+01 1.480701203184E+02 1.706246329916E+01 -3.458814587096E+01 -1.954976583182E+02 -1.634897666072E+02 -3.974697845023E+02 9.087782723700E+01 1.469405799420E+02 3.937126298756E+02 9.663938146637E+01 -8.292649057118E+01 8.920715081569E+01 -9.140005228338E+01 3.045941090666E+02 -5.429362920084E+02 -2.512980443858E+03 1.831327885405E+03 5.167925917095E+03