#BIOSYM hessian 1
@Type: Hessian Update
@Units
 distance: 	A
 energy: 	Kcal/Mol
#header
@natom 19

#label
L1      L2      L3      L4      L5      L6      L7      L8      L9      L10     L11     L12     L13     L14     L15     L16     L17     L18     L19

#element
Li Li Li Li Li Li Li Li Li Li Li Li Li Li Li Li Li Li Li

#matrix
57
 1.656989383646E+01
 -3.978900391788E+00 2.332145262859E+01
 5.396348309137E+00 -1.575376984154E+00 2.143093493035E+01
 1.427719416291E+00 -1.137245275756E-02 1.341278131663E+00 3.624810707042E+01
 1.658988710058E+00 1.284125186711E+00 2.719864394133E-01 5.589105282318E+00 1.980398247219E+01
 -1.877332005534E-01 -7.612181542346E-01 -4.432737925011E-02 -6.542520857450E+00 1.423373343348E+00 2.498226660069E+01
 -1.223153649071E+00 1.739283128322E+00 -5.495130358908E-01 3.710399653416E+00 3.072990664701E+00 -4.677349188803E+00 6.533821159999E+01
 5.990120549053E-01 1.249992072435E-01 -2.489219476592E-02 4.771914053509E-01 -1.185244185526E+00 -4.954481795789E+00 4.148145683517E+00 5.869156120810E+01
 -1.950609103893E+00 3.105775010317E+00 -3.530462392080E+00 -5.553595010760E-01 -3.818299977646E+00 -1.113794214292E+01 1.414982200813E+01 -4.880785525090E+00 5.882904173108E+01
 2.904319215766E+00 -3.189190574420E+00 -1.124610337416E+00 7.435618946605E-01 -1.656710007294E+00 -1.307665091990E+00 -2.089742749528E+01 -3.420804859334E+00 9.889721507050E-01 4.605849193939E+01
 -6.220342196015E-01 6.759420682814E-02 -7.398059261266E-01 -3.286334531878E-01 2.270318227340E+00 1.220316857001E+00 -5.866477444556E+00 -4.404121708479E-01 -4.692963228665E+00 5.079999037509E+00 4.012950095774E+01
 2.366454112563E+00 -2.113813024974E+00 2.417981940048E+00 2.696074355700E+00 1.044353238838E+00 1.109199223424E+00 -2.822781408603E+00 -1.328797909695E+00 -7.907931564751E+00 2.760187698504E+00 8.873856892196E+00 5.343625639145E+01
 2.533936505927E-01 1.512620333507E+00 -2.429790111871E-01 4.770240133562E-01 7.284034053820E-01 4.995832158526E-01 1.042335807438E+00 1.987445998226E-01 6.155386426637E-01 1.042580384252E+00 -2.342166509443E+00 -2.441021904941E-02 2.012240414021E+01
 -1.179353052295E+00 -2.629146767158E-01 -2.308673000198E-02 4.706640022679E-02 2.496682050472E+00 9.428719052508E-01 2.293325629259E+00 -4.692284794590E-01 2.408121168135E+00 -7.752836675442E-01 -1.709513312280E+01 -6.828733650104E-01 2.082709883668E+00 2.747321604950E+01
 2.175099757473E-01 -7.659095160194E-01 9.484316124514E-03 -6.510492525799E-02 -9.505019514252E-01 7.064702259120E-01 -4.818739835560E+00 -2.367627066249E-01 -1.977165515302E+00 3.840629603349E+00 2.973794874912E+00 2.849314285234E+00 1.242515676145E+00 -7.323286310560E-01 1.894733662445E+01
 -1.112473065677E+00 -3.270100938631E-01 9.337516712364E-01 -8.134495430020E-01 5.664673251148E-01 9.328744959140E-01 1.901105438620E+00 -1.501559012007E+00 -3.712463327060E-01 -3.399138650273E+00 8.962058155020E+00 3.708672522317E-01 -1.130636215784E+00 -2.480717806204E+00 1.798008879128E+00 1.087783947288E+01
 -2.009880319808E-01 -1.841155069105E+00 3.528042096943E+00 1.287033842715E-01 -2.172425972731E+00 -4.577392942199E-01 1.466977409350E+00 -1.277534785178E+00 -6.474085863643E-01 7.304986531179E+00 -9.720462741764E+00 -1.813002648884E+00 -1.309703799495E+00 -2.827483071068E-01 3.199142795133E-01 -9.206728604637E+00 2.150298331011E+01
 5.954444413176E-01 4.085982781324E+00 -1.631075843991E+01 -9.425459911506E-01 -2.889217308123E-01 -3.249349089583E-01 -1.349660177644E-01 -1.621217558837E+00 2.144396033898E+00 -5.912599561136E-01 -4.302467511962E-01 -3.691546163396E-01 -1.353586447097E+00 8.932495802202E-01 -1.429073360219E+00 -2.575585008635E+00 -5.988351684570E+00 2.497351006887E+01
 -1.036919128210E+00 6.769916569738E-01 2.571021591186E-01 4.015422941591E-02 -1.490635520895E+00 -9.227437288068E-01 4.230610531700E-01 1.816531373946E+00 1.496506279120E+00 -1.481691703960E+01 -4.477704143215E+00 4.640800403264E+00 -9.676402140476E+00 7.229441501830E+00 -1.841018053426E+00 -4.252503462160E-01 -1.331669448510E+00 -9.546794990026E-01 2.757670167443E+01
 1.609592886692E+00 7.916750490027E-01 -1.611443106806E+00 -4.367876657683E-01 -5.444796230557E-01 -1.213338640892E+00 1.388386764578E+00 8.211655744940E-01 9.684660102089E-01 -6.634232674971E+00 -1.502521716492E+00 1.189783387876E+00 8.596638130773E+00 -5.554056027739E+00 -1.124247564080E+00 8.594136640990E-01 -5.939863255400E+00 -9.730747513341E-01 4.208143907369E+00 1.723482083265E+01
 -4.991476401460E-01 -2.844581102362E-02 -5.617636917629E-01 1.879658703687E-01 -2.297576213079E+00 -2.568036243211E+00 1.228068497014E+00 1.220211911855E+00 3.437813681502E+00 3.222114986091E+00 1.592546679649E+00 -1.793670375464E+00 3.218673076758E-01 1.080645471020E-01 8.282720768972E-01 8.124736057585E-01 -7.264353768011E-01 5.322261147453E-01 -1.502235326313E+00 -8.336317410622E-01 2.572180774861E+01
 -6.612439361546E-01 -5.839249778386E-02 2.102127332167E+00 1.701454708718E+00 2.473341196204E+00 -2.117917313353E-01 -3.225146521176E+00 1.111534476369E+00 -1.659222448370E+00 1.557574234292E+00 5.288938677337E-01 5.094027159748E+00 7.577202135552E-01 -1.801427521834E+00 5.851125385176E-01 -1.818602092981E+00 6.145071539922E-01 -2.003437060368E+00 -2.837604831838E+00 -1.371017647864E+00 -6.009902832432E+00 1.892904977683E+01
 -1.322573144446E-01 1.344579064268E-01 7.317371308081E-01 -1.053502207544E+00 8.540761983598E-01 4.112243215826E-01 4.504839774860E-01 3.041884251703E-01 3.533491053195E+00 -7.539290315587E-01 -6.935123632171E-01 -3.800472201791E+00 -1.177568049058E+00 7.560338974240E-01 9.773724719279E-01 9.980271652242E-01 -4.364429736369E+00 6.241845581539E+00 -2.264313504254E+00 -2.555748509111E+00 -4.061693738306E+00 -3.337737623723E-01 1.482423645797E+01
 -3.523756780596E-01 8.458601013413E-01 -1.673673272879E+00 -1.291165394782E+00 -9.206996789570E-01 -7.670066253934E-02 1.660716396888E+00 2.061584457700E+00 2.824090849478E+00 5.041981175873E+00 -2.703689865851E+00 -1.068192803714E+01 1.390909010016E+00 8.722552606657E-01 -1.686480773033E+00 -1.832046606305E+00 4.837042082860E+00 -7.273703311825E+00 -9.380000387199E+00 -3.414820256619E+00 -1.138544138022E+01 -2.997159692153E+00 -1.191617468961E+00 3.255582063939E+01
 -9.890442869444E+00 1.558077233315E+00 -7.826176497324E+00 -1.915726476115E+00 -2.864328520124E+00 -1.659960944836E+00 -3.019064930055E+00 4.027473860630E+00 8.318229280585E-01 -3.245123295847E+00 1.491446002910E+00 1.872484914547E-01 -1.479177186720E+00 1.908368595925E+00 -1.137806842530E+00 -3.976798397759E+00 9.911787754621E-01 2.271853834753E+00 1.001354748746E+00 -2.404501856093E+00 -1.744055761140E+00 2.134246930013E+00 2.185969567456E-01 1.864076671867E-01 2.884603819006E+01
 1.816071300312E+00 6.193694711838E-01 1.703464334803E+00 -9.282925897925E-01 -1.790455061853E+00 8.547622604796E-01 2.207220242615E+00 -1.312644292555E+01 4.507405548764E-01 -4.441084673561E+00 -4.425135145068E+00 2.196704543839E+00 -2.942413399205E+00 -1.281998843411E+00 -1.471615938261E+00 1.722378020636E-01 -5.238291621534E-01 1.142032605741E+00 1.239583331669E+00 -6.606789579800E-01 1.391386850635E+00 -1.307468560498E+00 -9.932801968060E-01 -4.022184146621E-01 -7.364769150797E+00 2.699762097467E+01
 -8.687225176476E+00 -1.495662509645E+00 -6.004798242617E+00 -1.872134464141E+00 1.125915147734E+00 2.930320622560E+00 -4.308608592801E+00 -1.090319921323E+00 -3.542821058202E+00 3.555561535657E+00 5.933298586749E-01 -1.798117361439E-01 -9.758612234898E-01 -1.246461079332E+00 2.190732573661E-02 -1.457928387403E+00 -7.714956268958E-02 -1.845195236816E-02 1.640489565506E+00 1.880637168049E+00 -8.176680377246E-02 -1.246594343907E+00 -1.124796689414E-01 6.497132948537E-01 5.590101616483E+00 -2.218853013818E-01 2.826534923960E+01
 -2.866399146824E-03 -3.373875847057E-01 -3.025611717584E-01 -8.799667436681E-01 -1.527874120816E+00 -6.439230424504E-01 -9.435915149667E-01 1.795442558743E+00 -2.837406838298E+00 1.692525650397E+00 -3.818961228505E+00 2.614390188385E+00 -2.784873865800E+00 6.701640459226E-01 -7.949576997470E-01 4.519891248521E-01 2.350164721316E+00 5.923462684937E-01 -1.161314069955E+00 8.311377986143E-01 7.357424742870E-01 -5.276547585686E-01 -7.314631861875E-01 -3.845323576875E-01 1.490053909712E+00 2.389673588203E+00 4.938050595403E-01 1.786227767696E+01
 3.951640360439E-01 -1.265046792993E-01 5.651612801857E-01 -3.613424789321E-01 -3.317126743576E+00 1.004357004766E+00 -5.928356238557E-01 -2.219977676800E+01 4.918752547634E+00 -2.888547093882E+00 2.344885028522E+00 -8.828091181491E-01 3.154858888771E-01 -4.467260775894E-01 4.285474350039E-01 1.633189350364E+00 1.323775896981E-01 -3.850775702897E-01 6.558239583625E-01 -1.206443070439E+00 -1.656115430799E-01 -6.255266466592E-01 1.896681423379E-01 -1.147931626882E+00 -1.057711356933E+00 8.870291349667E-01 2.346813655296E+00 -1.020865319253E+00 3.042401028475E+01
 1.249935072816E+00 1.353645453214E+00 -1.049876579442E+00 2.052213124641E+00 2.362438912252E+00 -4.433696604420E+00 2.758202042807E+00 3.378747571285E+00 1.397329918755E+00 -8.923325915038E-01 2.247083317045E+00 4.963027439989E-01 -2.586687190749E-01 -1.199199046994E+00 -2.182985793558E+00 1.407317932762E+00 -1.018153011375E+00 7.183381284691E-01 6.440474080602E-01 -5.407215879133E-01 1.661350354361E+00 1.807281058651E+00 1.128612623543E-01 -5.090075622565E-01 -2.745555463691E+00 -1.755485495737E+00 -2.879399782587E-01 2.163805975087E+00 -2.775264794905E+00 2.713347932342E+01
 9.137283048004E-01 -2.194675098534E+00 9.414552232169E-01 -1.712665206961E+01 -6.585937722682E+00 7.339027109499E+00 -1.304291968758E+01 -3.366532845677E+00 -8.598091952921E+00 2.574454827827E+00 5.087487826760E+00 7.174911586262E+00 -2.282255961162E+00 -3.345085561744E+00 8.352665230782E+00 5.142759736743E-01 -1.534017115960E+00 5.992327796570E-01 -4.709828097998E-01 -1.221281080501E+00 -1.778850160725E+00 -1.208393833254E+00 1.764723226988E-01 -3.564482299104E-01 1.310183161152E+00 3.780549986817E+00 2.428269066490E+00 -6.288393667527E+00 4.297364993166E+00 -1.007392334708E+01 4.512768280679E+01
 -2.725460029539E+00 -1.494886558303E+00 -1.148497924816E+00 -3.654751836957E+00 -5.562398333385E+00 2.618001104986E+00 -1.529616854808E+00 -2.867637727294E+00 -1.541331190532E+00 4.430362906492E+00 -3.189700903960E+00 -4.781074775862E+00 -2.277580659149E+00 -3.085737108425E+00 7.070093183394E+00 -5.909660788840E-03 1.853455422159E+00 -8.359971916027E-01 -1.291611393701E+00 5.174748851610E-02 -1.182818337800E+00 2.735666672795E-01 -1.647842276884E+00 9.082602520021E-02 1.655993717339E+00 7.458518911632E+00 6.107371191793E+00 5.414901822722E+00 -2.194798629938E+00 -2.104978424122E+00 8.413242576207E-01 3.041171222026E+01
 -2.041460584814E-01 8.286641367852E-01 4.740686815829E-01 4.405881391407E+00 2.883337573621E+00 -3.223864084785E+00 5.365320748813E-01 -1.246648105706E+00 -1.011735493643E+00 1.784710722973E-01 -7.731234459979E+00 -1.031424149558E+01 4.125195122336E+00 5.875995834341E+00 -1.357352011718E+01 -5.148937643698E-01 7.377435089242E-01 -2.133402703393E+00 -8.287579186296E-01 -4.048450720052E-01 -1.850673169787E+00 2.281082156845E+00 1.727121471933E-01 -2.321908670258E-01 1.415387903476E-01 1.255031796287E+00 3.539849352338E+00 -7.608416426562E+00 2.545020673506E+00 -7.804333010603E+00 -5.430949947212E+00 -6.736370259104E+00 3.671294992354E+01
 -3.035527463943E-01 -3.507446645195E+00 1.668808391726E+00 -1.635560968487E-01 1.216246769847E+00 2.539316801415E-01 6.019819432176E+00 1.254122288082E+00 3.311005176424E+00 -6.255322197088E+00 -2.362404307810E+00 -1.205682386847E+01 -1.745663330247E-01 -1.350185574463E+00 -4.913459858179E-01 -2.799681466018E+00 1.480736402923E+00 -2.079353533892E+00 -1.063855318456E+00 -2.063132131785E+00 6.383382049613E+00 -1.638293409263E+00 5.881598576600E-01 3.831761841709E-01 2.086684067641E+00 1.183411308688E+00 1.309051472976E-01 -1.591583396792E+00 -1.302711290951E-01 1.241534336739E+00 -1.065787420477E+01 6.635838011171E+00 1.448833136787E+00 2.467831987976E+01
 -4.338610737714E-01 -1.641407131851E+01 2.365654407469E+00 2.048421035204E+00 -6.512203213049E-01 9.621180270107E-01 -3.964538445985E+00 2.608391406462E+00 -4.931539869343E+00 1.283174553247E+00 1.992725180964E+00 2.883805218842E+00 3.558171346798E-03 1.544159542164E-01 -6.721259655700E-01 1.202230749178E+00 -1.602974917867E+00 -2.686521400781E+00 -3.468078202324E+00 -2.352842737252E+00 6.085495455116E+00 9.173052651787E-01 1.190551435764E+00 -1.312012070628E+00 -2.818424909584E+00 2.878959405404E-01 2.269053964876E+00 -2.568662629949E+00 2.109519820890E-01 9.650115376743E-01 9.579189417023E+00 -4.570765771459E+00 -1.949213064078E+00 -6.769414440045E-01 2.345865437712E+01
 3.066156039645E-01 2.865141800182E-01 1.400584742726E+00 -2.870483476740E-01 1.261932309648E+00 3.708070991348E+00 9.760486418956E-01 -2.307469390395E+00 3.680621864555E-01 -8.906915737033E+00 -2.372227341669E+00 -1.063091186579E+01 -3.014336928653E-01 -1.491743794476E+00 2.207786215566E-01 4.814261738737E-01 1.269890032743E+00 -2.080851055512E+00 5.399468181901E+00 4.076918792611E+00 -1.491140259573E+01 1.321472402046E+00 8.281800745275E-02 -2.194663083164E-01 2.185019467608E+00 2.092677546516E+00 -3.920349260237E-01 2.897512757211E-01 2.349428496407E+00 -8.460798209545E-02 -7.164214491824E-01 -7.994939101616E-01 -6.355685971602E-02 -9.124979312500E-01 -6.502674549272E+00 2.843432062581E+01
 -5.370241837223E-01 2.889839007401E-01 4.886517260917E-01 1.952323518151E+00 8.846329559492E-02 6.220263495553E-01 -4.241653819686E+00 7.310781227188E-01 -1.261293855031E+01 3.003627436288E+00 1.465460475831E+00 3.063812675693E+00 -4.135039592576E-01 -2.642305361891E+00 2.724012471043E+00 -2.103239910050E+00 -2.186008368944E+00 1.993467233827E+00 -6.810624832390E-01 9.794216486627E-01 -8.234666316994E-01 6.831463617476E+00 -5.636414885068E-02 -2.312836487811E+00 7.276489544606E-01 -3.990779271968E-01 1.949275921194E+00 -2.118144489007E+00 -1.920639932400E+00 -1.527115157580E+00 4.163152578872E+00 -1.943366314514E+00 -2.083079778861E+00 -4.853219174161E-01 4.474693461422E+00 -2.981601116723E+00 2.263530387740E+01
 -9.419640953828E-01 4.064055962780E-01 -1.056186856973E+00 1.507182825962E+00 9.431726069692E-01 -1.392412658244E+00 -4.650689858071E-01 1.005952596108E+00 1.831635247721E+00 2.588263078351E+00 -4.462256249788E-01 -8.410802833735E-01 1.439914937736E-01 -8.102091533774E-02 -4.160254008654E-01 1.993597771113E+00 4.257655850561E-01 2.741356614019E+00 -3.014068349456E-01 1.164804644320E-02 -6.795187158382E-01 -2.786084451877E+00 6.683856216637E-01 7.902754887599E-01 -4.089985246384E-01 3.419213031914E+00 -1.475306694234E+00 -4.613055458483E-01 -4.940207987870E+00 1.205843276738E+00 -2.322696068343E+00 -7.764928008712E-01 -1.138378684904E+00 5.027075264730E-01 -8.464263698147E-02 7.371512217343E-01 5.637468576691E+00 1.815225606265E+01
 -1.512243461973E-01 -3.157275114732E-01 3.345041601246E-01 -2.077290205891E+00 8.999327468465E-01 1.343234001913E+00 -4.012899381859E-01 3.687448168833E+00 -8.040796907531E+00 1.484707229330E+00 -2.341760141539E+00 -2.569422864346E+00 -1.080223917412E+00 7.682815101205E-02 -1.652575736247E+00 -2.496791325381E+00 -1.448323274011E+00 4.424622522259E-01 4.250387903064E-01 1.829975717505E+00 -3.415002513382E-02 -4.698894017630E-01 8.821047181575E-01 -1.322073484751E+00 4.534766361389E-01 -2.642862723823E+00 -1.952182536640E+00 -3.641730704953E+00 2.214181439919E-01 -2.364380640763E+00 -3.571378751248E+00 1.984426236986E-01 1.166893956235E+00 -4.086002989507E-01 -1.294286792728E+00 -6.010669840131E-01 4.610567251865E-02 -4.301251039558E+00 2.259914707516E+01
 -1.453869901081E-01 -3.802742964488E-01 6.978841676438E-01 -2.297595329710E+00 -8.185310506507E-01 1.757342888670E+00 5.884330846151E+00 -6.307541868199E-01 1.993169991960E+00 -7.968373758581E+00 5.806687746064E+00 -1.021421513579E+01 -6.703791693013E+00 -4.755508256315E+00 -7.651960212903E+00 1.411968046205E+00 -7.983944989175E-01 3.744723983093E-02 5.859851610470E+00 -2.365774450334E+00 1.253159486057E+00 -1.260526713863E+01 9.225867695602E+00 4.261163154971E+00 -4.868704461021E-01 8.409118875679E-01 1.501522611810E-02 -4.072728934387E+00 1.911465518427E+00 3.125530355292E+00 -3.198355020006E+00 -1.643424761782E+00 2.136699824255E+00 2.186034180956E+00 6.448643664688E-01 -1.986451441515E-01 -1.346311897240E+01 -7.292443591000E+00 6.099442827194E+00 3.595765230030E+01
 4.238514839632E-01 -2.191173102594E-01 1.159993907946E+00 -7.500563776039E-01 -1.271637718725E+00 -9.780729070160E-01 -2.761981673717E+00 1.122634266879E+00 -3.181663763355E+00 2.353731266380E+00 -3.298460822215E+00 7.162931315840E+00 -3.435956870360E+00 -3.245352895593E+00 -4.330642570756E+00 -5.944612598861E-01 1.852646287887E+00 -2.256576176707E+00 1.601365051127E+00 -3.536560959941E-02 -1.456674540670E+00 6.845053892005E+00 -5.150891263114E+00 -1.616000050947E+00 3.056454403896E-01 1.125658514222E+00 9.756941379770E-02 3.200643180563E+00 -2.706745773470E+00 -4.389223861238E+00 1.528082061118E+00 9.679875970188E-01 5.554696648914E-01 -4.916913559189E-01 -5.534941141416E-01 2.232892463014E+00 -4.334952961372E+00 -3.117348188381E+00 -1.175594779586E-01 -4.385647336090E+00 2.244480455759E+01
 -1.630135868791E+00 -3.205768118342E-01 -4.172014852314E-02 -7.002832993256E-01 -1.024080476152E+00 -1.560270711598E+00 2.807737403316E+00 2.635087686854E-01 1.754705295770E+00 -7.312936530579E+00 4.431505725716E+00 -1.337131114441E+01 -6.021819553406E+00 -5.293210932869E+00 -5.834223636618E+00 -1.239362511152E+00 -1.118483925182E+00 2.364343820115E+00 2.173011948141E+00 1.741040855378E+00 2.831137225612E-01 2.824614938749E-01 -7.848877057117E-01 1.536394911447E+00 2.232841749764E+00 3.736533649726E+00 -1.064534102895E-02 5.715129793938E+00 -4.214547323804E+00 -9.247539846605E+00 -1.248438887070E+00 1.968577716182E+00 1.334567886676E+00 7.333266716647E-01 -4.775944866542E-01 -4.352569687232E-01 4.039135852889E-01 -4.412068552559E-01 1.419973865675E+00 3.318186835787E+00 2.635917223973E+00 2.514042833375E+01
 1.637815091830E+00 5.111267388821E-01 -1.314471967605E+00 7.653045710896E-01 2.588550556162E+00 1.522222553115E+00 -8.055703678406E+00 1.397059180415E+00 -4.649406580783E+00 -3.841925846741E-01 -5.954431987997E+00 -1.090866853920E+00 8.419451734893E-01 2.704926928575E+00 -1.326887245140E+00 3.590367188166E-01 1.924575289435E+00 2.016149457975E+00 -1.983803039030E+00 -1.620452943032E+00 -1.697729586253E+00 -8.226124056324E+00 -6.897613326172E+00 3.986734250783E+00 -2.609810089811E+00 -1.433026866003E+00 -9.875032317720E-01 -3.136757074446E-02 -2.459875350068E-01 1.995407160977E+00 -2.130211067354E-01 7.612537607579E-01 1.240525039036E+00 -5.978253119969E-01 -7.466591191746E-01 -1.154343312666E+00 -6.297857894066E+00 3.676618584600E+00 6.066499205022E-01 -2.180700334439E+00 -4.905100955706E-01 -1.999434653406E+00 3.050370514479E+01
 -7.604665272221E-01 -1.734112500927E-01 1.359886528315E-01 1.793407333121E+00 2.424905353455E+00 2.019032151212E+00 -7.011448798394E-01 -3.639749207325E+00 -6.884795029073E+00 -1.724098278357E+00 -2.535070298725E+00 -2.414300046006E+00 2.052783951220E-01 5.696053120165E-01 -4.195226012137E-01 -9.615073901284E-01 -5.642682059321E-01 -5.548896170105E-01 -2.722809879274E+00 -8.912274455565E-01 -4.955934342853E-01 -3.883617999320E+00 -3.558948233615E+00 1.891356312714E+00 2.192594213148E-01 -5.034994835175E+00 3.448580109919E+00 -1.910757191766E+00 2.779848545670E+00 -1.668272407170E+00 2.062149815477E+00 -5.904139336531E-01 5.434592968561E-01 -9.063658236852E-01 1.307128917005E+00 -2.159509953912E+00 6.405741562118E+00 -4.259223975567E+00 -6.876767161990E-01 -4.682910890083E-01 -7.455530251307E+00 -4.190199125279E-01 7.719641943813E+00 2.678477732915E+01
 1.718998623197E+00 -5.194059196244E-01 1.161288348956E+00 5.177309177133E-01 -7.478244449135E-01 -7.077448805788E-01 1.194971549467E+00 2.050135556785E+00 -2.729465734066E+00 -5.940790183702E+00 -8.211545886008E+00 -6.001850742836E+00 1.900969398442E+00 1.505645926521E+00 5.230389370274E-01 1.462627094694E+00 5.423692026076E-01 -9.819285870132E-01 -1.352662843433E+00 -7.357367766845E-01 1.215614750033E+00 1.952831418428E+00 2.171707044138E-01 -2.074168387630E+00 7.509133109031E-01 2.108615340075E+00 -8.285390093790E+00 -1.050868042891E-01 -6.000163116526E-01 -3.332523820361E+00 -1.341172381729E-01 -1.186917655494E+00 1.473048576065E+00 -1.881063815497E-01 -9.094263976566E-02 -1.065886738146E+00 1.205561001930E+00 2.502368247704E-01 1.292991925336E+00 -1.330651175108E+00 1.215875107705E+00 -7.979077434556E-01 -1.517316923125E+00 3.033708291752E+00 2.267756421048E+01
 -8.258528845781E+00 5.544943346622E+00 -1.057626182707E+00 -5.463755404608E+00 1.278180363193E+00 -9.366523986155E-01 -1.050117382135E+00 -3.344119656057E-01 -2.855325177817E+00 -3.363153325178E+00 -1.993627324452E-01 -4.260818100742E-01 -6.906985686725E-01 1.968911516885E+00 1.921876567757E-01 1.912950839604E+00 9.594450361845E-01 -5.422656664679E-01 -7.043367641337E-01 -2.082558894024E+00 -1.100020294944E+00 3.687323649006E+00 -5.338073825489E-01 3.942878228662E-01 1.683033089854E+00 1.638955948347E+00 3.454807561084E+00 6.045290936898E-01 -1.542309213669E+00 -1.769520221349E+00 -3.090313573219E-01 -7.570448635675E-01 -8.736816324642E-01 -8.385616060912E+00 -4.972531468651E+00 3.537106665845E+00 -2.775230708810E+00 1.623017306605E+00 3.833218601211E-01 -6.070854594754E-02 2.514964611010E-01 2.394260307282E+00 -8.483854798074E-01 4.074623519164E-01 -3.365462444020E-01 3.269048032418E+01
 4.688079832309E+00 -7.294445300252E+00 -3.047090219116E+00 1.917134772761E+00 -3.777633918364E+00 -5.691545207113E-01 2.842740761864E+00 -4.157596195700E-01 3.917849574265E+00 3.452080539709E+00 -1.399262974768E+00 -2.475198098579E+00 7.015045129893E-01 4.943724839020E-02 6.602903000574E-01 4.131100288688E-01 7.530866120949E-01 6.376602370249E-01 4.745357771711E-01 7.311178999377E-01 1.564537925652E-01 -9.067600854609E-01 9.846138523658E-01 3.958873694327E-01 4.027368182471E-02 -8.222752942617E+00 -8.397754371195E+00 -2.476310435283E+00 1.447566005716E+00 3.160270514616E+00 -1.954984730469E+00 -1.541638266577E+01 4.198444449882E+00 -8.781617747555E-01 -9.254859815052E-01 1.565254865782E+00 -2.325445714955E+00 -1.853778436262E+00 5.572167645331E-01 7.116048926568E-01 -1.383848875082E+00 -1.771389213528E+00 -2.115164251223E+00 -1.480772033063E+00 1.509296546967E+00 -1.355733041048E+00 3.709668027030E+01
 9.907513261985E-01 -2.247921865296E+00 -1.099276814750E+00 3.062529880004E-01 -1.400085658052E-01 -2.774316102393E+00 -1.099218293613E+00 3.231041030885E+00 -2.769757996881E+00 5.219721656481E-01 3.294434565564E-01 -3.325218371080E+00 5.054470700258E-01 2.429465974382E-01 7.637769636485E-01 6.336429418857E-02 4.299239600926E-01 1.198359190409E+00 -4.840688768290E-01 1.116347943896E+00 -6.794392748585E-02 -1.104234663403E+00 -4.466157776364E-01 1.223922571386E+00 5.065353186779E-01 -1.008806960813E+01 -1.093865095902E+01 -8.157538534638E-01 -2.370896931155E+00 2.334952569926E-01 -1.362309417377E-01 3.949962480892E+00 -3.759430747852E+00 2.522944075012E+00 -1.859552591500E-02 -1.484221191469E+00 -1.065926799770E+00 1.321530280003E+00 1.301640537336E-01 1.587258158432E+00 7.495115886241E-01 -3.104928264032E-01 -8.522544536905E-01 -1.184025918249E-02 -8.326262740673E-01 1.718092786843E+00 3.928991349591E+00 2.341913790800E+01
 9.229092217645E-01 2.550541725232E+00 -9.923731792190E-01 -8.542244634935E+00 -2.805301384772E+00 2.634950707809E+00 -6.236910063210E+00 -2.773570359881E+00 1.040384636640E+01 1.129706228706E+00 -1.662615409785E+00 -2.299423356448E+00 3.472816799197E-01 -2.863460362420E-01 -1.993495490055E+00 -3.400331265986E-01 -1.046792975033E+00 2.374900006159E+00 -2.454425325769E-01 1.517009805683E+00 -1.048281345922E-01 -2.644309796974E+00 1.447404863316E+00 1.298580949745E+00 -5.868457843222E+00 1.325710490142E+00 1.274027251574E+00 -1.003988711276E+00 4.027725723156E-01 1.189086170284E+00 -2.813865323119E+00 -3.000277166123E+00 2.570672219837E-01 -2.492712839591E-01 -7.839868313134E-01 7.086160538012E-01 -8.869227934349E-01 -1.594383030565E-01 1.902229187437E+00 3.401040060662E+00 -3.658963572836E-01 -3.807990660555E-01 1.519066418642E+00 -1.880726533869E+00 -9.900197475916E-01 -8.183737826252E+00 -4.477528570894E+00 -2.006125985894E+00 2.542495119256E+01
 -4.544228789192E-01 8.481764305610E-01 -8.868492166116E-01 -5.032357876562E+00 -8.003411748304E+00 1.293118553929E+00 -5.236313143209E+00 -6.808851028649E+00 1.190355904041E+01 -2.469321569713E+00 -1.545394133040E+00 -1.693186730221E+00 6.411407083427E-01 -3.315348787980E-01 -3.617824028153E-01 8.053800300139E-01 6.897600816911E-01 7.826834389947E-01 4.029973031341E-01 -6.159328075180E-01 1.176779338036E+00 -9.441873489244E-01 5.159069309293E-01 2.713905023575E-01 2.925894421365E+00 -2.276558550099E+00 -2.083011649066E+00 -1.944067992107E-01 4.308299464038E-01 4.121719467897E-01 -2.140767276360E+00 1.381084796962E+00 -1.028951848776E+00 -9.045222735068E-01 -8.337385576330E-01 3.963694383211E-01 -3.697348729664E-01 1.173254203465E+00 4.022914958379E-01 1.371810727834E+00 7.392414309780E-02 4.878311058064E-01 -1.307897374019E+00 -1.837257139706E+00 -1.289267757794E+00 -3.375341421416E+00 -2.364565101899E+00 -7.948246061643E-01 1.147574457922E+01 2.295788538988E+01
 1.038375178091E+00 -1.562491667780E+00 2.475715741104E+00 6.144943541735E+00 -2.965386135059E+00 -6.772115495752E+00 3.904035738996E+00 8.511380574576E+00 -1.610741443435E+01 1.485767183824E+00 2.510371628828E+00 4.836364278194E+00 -1.757829182129E+00 -6.943905968944E-01 1.942072699298E+00 -4.816560794158E-01 -3.560379289347E-01 -2.391335478965E+00 1.875200039239E+00 -2.687642429307E-01 -6.797404564491E-01 1.241021154002E+00 -2.658030707894E+00 -1.528247307643E+00 3.969815634404E+00 8.409563313176E-01 -3.485154395559E+00 2.691847269660E+00 -1.632129541037E+00 1.089860939278E+00 2.220264530729E+00 8.046480741788E-01 -2.226897571553E+00 -2.170105261421E+00 2.244117621568E+00 -2.123719696909E-01 4.289317170551E+00 -7.097914825091E-01 -8.111442046039E-01 -2.835941892297E+00 1.692761954204E+00 -5.208935286707E-01 1.993361733802E-01 2.395719614733E+00 1.097260422088E+00 -7.919749656560E-01 -1.933137720535E+00 -7.609658632736E-01 -1.238022600024E+01 -8.070285923425E+00 2.920142428099E+01
 -1.274063025061E+00 -5.445458557768E-01 8.345183445385E-02 6.191263350400E+00 1.581435118773E-01 -3.189059004882E+00 2.413018709202E+00 -6.389169982073E+00 -2.909845058799E+00 1.531619063254E+00 1.726474823625E+00 -1.097523398244E-01 1.884642749496E-01 -2.033025888349E-01 6.087155832174E-01 3.427804379637E-01 1.227146599758E+00 -1.622173641342E+00 -4.461184326454E-01 3.635601744580E-01 2.172074221891E-01 4.878162454866E-01 -1.297105633158E+00 1.838248396309E+00 -5.408724734412E+00 5.236580115191E-01 -2.429626172519E+00 9.505842410043E-01 -2.715265805275E-02 -6.652931672783E-01 -1.229092235326E+00 5.573435614100E-01 -4.906511051254E-01 2.039413124725E+00 -5.199428441845E-01 8.135870639786E-02 5.570016806977E-01 -2.697706224930E+00 6.372518823334E-01 -2.205380396032E+00 9.602678743121E-01 -3.084891287444E-01 -7.116089208298E+00 -2.041898811430E+00 2.359171794773E+00 1.362030255668E+00 1.074666089226E+00 1.106081707932E+00 -8.453458219880E+00 -2.504327145187E+00 3.000269469000E+00 1.988604286424E+01
 2.014836671602E+00 -1.652784113097E-01 9.162154079771E-01 3.570614807240E+00 2.976587704077E+00 1.920509570785E+00 -4.659325170628E+00 -1.231635328507E+01 -8.701432209699E+00 1.632885420266E+00 6.638151807613E-01 2.132681680197E+00 -3.581412643948E-01 -1.449085695027E-01 7.514546159473E-01 -2.004161800117E+00 1.658604265060E+00 -1.511607649304E+00 -1.438543140359E+00 1.150479193758E+00 9.651326127188E-01 2.058127156485E-01 -2.028544871261E+00 -5.762228240099E-01 2.303191847904E-01 -2.741739215400E+00 -7.152105726298E-01 -1.427043911040E-01 1.239789767405E+00 -1.272571255271E+00 2.070860626752E-01 -7.303175828698E-01 3.911308546611E-01 -9.505919682467E-01 -1.293217523276E+00 -2.250318523381E+00 -2.642212937529E+00 -8.936965989971E+00 2.561908006640E+00 1.830890308315E+00 1.061674328782E+00 -3.119554061773E-01 2.170379951805E+00 -1.131372677242E+00 1.636479316355E+00 -5.025507775241E-02 1.305486384717E+00 8.634210138489E-01 -2.808223307238E+00 -2.435441949641E+00 4.877418335270E+00 9.448037883765E+00 2.282242414856E+01
 -2.204010428237E-01 1.248257739672E+00 -8.938083530863E-01 -1.356887886635E+00 3.032649413694E+00 5.197270423010E+00 -7.855899193571E+00 -7.946873192502E+00 -5.591742716185E+00 3.361060444549E+00 1.211638070555E+00 -2.044212785237E+00 5.432042556790E-01 6.500165445671E-01 -5.197313441168E-01 1.717797849375E+00 2.279485868183E+00 1.779408551852E+00 -2.423747302657E+00 -1.347585515350E+00 -3.820953783397E-01 -8.134628904462E-01 8.176472912931E-01 1.493042544515E+00 -5.570169503139E+00 -1.443384072428E+00 -1.567929927565E+00 -4.256876145908E-01 3.009289841849E-01 2.523752619706E-02 -7.713807258534E-01 -4.050647976696E+00 2.266331905025E+00 9.833191569147E-01 3.356207506779E-01 -4.479531118472E-01 -3.280330398875E-01 5.044148335738E+00 -1.952639439514E+00 -7.463603019494E-01 -9.592541332005E-01 -1.048496360542E+00 5.553247145703E+00 1.883438173283E+00 -2.308683109363E+00 2.219220419087E-01 -4.645443082305E-01 1.582024659997E+00 3.956950869192E+00 -3.773410890119E-01 -8.241519899166E+00 -7.840222806933E-01 -2.800357647397E+00 1.726547112795E+01