#BIOSYM hessian 1
@Type: Hessian Update
@Units
 distance: 	A
 energy: 	Kcal/Mol
#header
@natom 19

#label
L1      L2      L3      L4      L5      L6      L7      L8      L9      L10     L11     L12     L13     L14     L15     L16     L17     L18     L19

#element
Li Li Li Li Li Li Li Li Li Li Li Li Li Li Li Li Li Li Li

#matrix
57
 2.184451965684E+00
 5.680625161129E+00 1.880744698293E+01
 -1.804030334237E+00 -4.969690578693E+00 2.732980285767E+00
 7.857699911889E-01 1.451295269415E+00 -6.227395716167E-01 3.653947359682E+00
 -1.325059890809E-02 1.646361803904E+00 -1.620977550171E+00 -4.838935280001E-01 1.507327322154E+01
 1.176553068603E+00 2.794386736588E+00 -2.376281003692E+00 -3.706649485027E+00 -3.350751757752E+00 2.568460105946E+01
 -8.993629895058E-01 -4.748510476353E-03 -7.379411742609E-01 1.571008595675E+00 1.833394024497E+00 -2.054396753336E+00 2.236991875236E+01
 -3.245338788066E-01 2.229800355639E-01 1.648984432813E+00 -6.834216290182E-01 -1.007454310262E+00 -2.359838689385E+00 -9.068424583580E-01 1.194393733563E+01
 5.523753920384E-01 4.038305312776E-01 -9.131242842227E-01 4.628814564548E-01 4.258574340181E-01 2.299980220196E+00 -9.508671239632E-01 -1.647772564836E+00 1.576024711168E+00
 -7.786975437783E-02 -5.635919850820E-01 8.204407230386E-02 -3.979660921574E+00 1.801616373303E+00 3.302051007112E+00 1.118210510377E+00 2.130824323190E+00 -1.664897736133E-01 2.440797707986E+01
 4.867202402663E-02 8.599078511130E-01 5.141656809037E-02 2.555220989885E-01 -1.203685059300E+00 -1.327701275549E+00 4.942162411459E-01 -1.472194869900E+00 6.508607220784E-02 -2.750046660986E+00 4.563199431189E+00
 -3.514605010968E-01 -1.712206196524E-01 9.709798585362E-01 3.082987788713E+00 5.174343366748E-01 -1.063949058050E+01 2.091591889703E+00 5.390444032261E-01 -6.135114848494E-01 -9.178544911556E+00 3.277448497935E+00 1.170434559392E+01
 -3.388409460111E-02 3.380508819520E-02 2.967260325578E-01 -1.616193677541E-01 -1.316847587576E+00 6.113608361277E-01 -3.372181261237E-01 1.927433346900E-01 -1.030378488660E-01 2.143262985473E-01 -3.751847925665E-01 -9.824924505501E-02 3.362096611753E+00
 -2.734038972914E-01 -5.493052858080E-01 8.093418289943E-03 1.393423173787E+00 3.993284075571E-01 -5.777053987930E-01 -5.182967316914E-01 -8.895484423125E-01 2.339480709120E-01 -1.052490833709E-01 -4.841805544414E-01 1.627769628924E+00 5.402138600579E+00 1.369018190743E+01
 7.221825997553E-01 1.203133898760E+00 -2.310665599946E-01 4.767543945275E-01 -1.471589439704E+00 2.047877600057E+00 -5.518767184999E-01 -7.986278164253E-01 5.389887576087E-01 1.189372504076E+00 6.059495507141E-01 -9.457997215385E-01 -5.798237032508E+00 -8.967451409930E+00 1.300639493888E+01
 4.183018639889E-01 8.476252399340E-01 -5.671116380784E-01 -2.156224863520E-01 7.325563515280E-01 8.474091670755E-01 -5.410872762845E-01 3.494324935121E-01 2.340236532029E-01 -3.899743429158E-01 4.944959904069E-01 -4.712487712121E-01 -7.189873491192E-01 -1.789550977725E+00 9.026540464289E-01 1.027791747411E+00
 -7.458563613925E-01 8.356864146115E-01 1.120733116451E+00 -1.083635805551E+00 -9.719656872410E-01 -1.252896216167E+00 -1.103640308076E-01 1.735317855836E+00 -1.062455950276E+00 6.336312190229E-01 -1.322164968174E+00 -4.495943304042E-01 -2.305018445081E+00 -7.186261315111E+00 3.184757350698E+00 -9.465696275899E-01 1.306936335111E+01
 -5.169701492085E-01 7.895483383595E-01 9.904907019301E-01 -2.706816780586E-01 -6.975446534794E-01 2.765415043678E-01 -1.829324281823E+00 2.043891112416E+00 -8.148520335768E-01 2.417948970620E-01 -1.290970584344E+00 -1.908637640110E-01 -7.257472717362E-04 -1.765700548825E-01 -6.040480518088E-01 -1.982429787608E+00 8.449212190590E+00 1.046122838773E+01
 1.654485136355E-01 2.775846739103E-01 4.864104543597E-01 2.340275089787E+00 -6.426097068349E-01 -8.641101023420E-01 -6.321251235119E+00 4.266226172938E+00 -5.031510544719E-01 -1.696940240536E+01 -1.857274597437E+00 2.357038585534E+00 8.934152634556E-02 -5.008452661600E-01 -1.639143638013E+00 8.912838428219E-01 9.680122766150E-01 9.623840145561E-01 2.000498483067E+01
 -8.474420669664E-01 -2.859625473870E+00 -1.721716633543E+00 2.258477527636E+00 1.339137740429E+00 -4.310062314496E-01 4.435445893816E+00 -6.450513337378E+00 -8.845766386930E-01 -4.015989472678E+00 -7.268412932940E-01 6.320184379144E-01 -8.384285696646E-01 -5.840827914632E-01 -1.681339589988E+00 -1.530911090762E-01 4.011104815721E-01 2.491843651516E-01 1.499648293322E+00 3.036711602597E+01
 -2.948720463394E-01 2.632678302361E-01 8.581283564181E-02 -6.893788126306E-01 1.589611413424E+00 2.683151200823E+00 2.183073738382E+00 1.219398617063E+00 -5.700927720400E-01 2.089209202922E+00 3.097012968371E-01 -3.637407599411E+00 -4.720094564168E-02 -2.538269581023E-01 -3.185115507394E-01 2.818478003101E-01 -6.188352891110E-01 2.143409479668E-01 -9.136935664673E-02 6.694900656726E-01 4.143233628391E+00
 8.878379454001E-01 4.630383095374E-01 -1.679218602740E-01 6.740854431834E-01 4.143376441584E-01 -9.124235246671E-01 -1.463498460446E+00 -2.531961983100E+00 -2.127671603481E-01 -1.194230071825E+00 -8.620511535184E-01 1.370962153189E+00 1.458719331918E-01 1.613818121281E+00 3.935492310992E-01 -4.969720156018E-01 -9.331747649865E-01 -4.512840023636E-01 4.970795250292E-01 2.255332016823E+00 -1.764168219122E+00 6.815106174703E+00
 -1.071883320644E+00 -3.332342417414E+00 -5.348475478190E-01 9.825781892951E-01 8.355554744118E-02 1.899002639969E+00 -7.435275431559E-01 -5.411589014978E+00 2.650867343642E+00 -1.162755374537E+00 1.763764181475E+00 -4.677018171844E-01 4.123723132272E-01 1.378922438193E+00 -1.325924620391E+00 8.116520302492E-01 -2.871103133603E+00 -2.076062572922E+00 -1.883876240997E+00 8.341825177404E-01 -1.386282157152E+00 -5.267834335495E+00 1.847181658104E+01
 6.327088222373E-01 1.173250749225E+00 1.086244154044E+00 5.374267526618E-01 1.095756470879E+00 -5.259758977482E+00 -1.342288649172E+00 1.152631751350E+00 -1.204476806445E+00 1.053930707623E+00 -1.191366374622E+00 8.745193253996E-01 6.377519065983E-01 2.121632510000E-01 2.597396064030E-01 -9.059818765211E-01 1.271482717211E-01 -7.026175106936E-01 7.940581714592E-01 -1.283406886479E+00 1.560285285198E+00 6.029877926482E-01 -1.147679195025E+01 2.121617749144E+01
 1.691392489248E-01 -1.323817993303E-01 -4.848809439455E-01 6.440474908077E-01 3.266285740762E-01 -3.565685942309E-01 1.035579539115E+00 -1.061035323854E+00 4.136567257514E-01 -4.179532365479E-01 7.315061750731E-02 -1.273258466732E+00 -6.200266694084E-01 -9.153718338033E-01 -2.720700995395E-01 2.819946678676E-01 -9.467690985987E-01 2.943238423513E-01 -6.741457578816E-01 1.080580594842E+00 1.537364906011E+00 -6.789350946879E-01 -2.122851320562E-01 -1.136971519827E+00 9.731425286185E+00
 6.641902450284E-01 -1.149264479698E+00 1.770789570306E-01 -1.322562289150E+00 4.042960120465E-01 9.210263043153E-01 -1.304416624349E+00 -4.839783316860E-02 9.958649850643E-02 -1.618979007067E+00 -1.284888017528E-01 -2.997822769791E-01 8.781139683924E-01 -2.070246695337E+00 -1.679326824148E+00 4.750069025217E-01 -2.935733678829E+00 -2.002183655548E+00 1.112921281327E+00 -2.646130434685E-02 -7.224083481998E-01 9.318197214985E-01 1.074225701196E+00 -5.237168608273E-01 -4.336341455086E+00 1.644092932040E+01
 2.560973522046E-01 -9.193475227632E-01 -5.358255806389E-02 -3.230187421467E-01 -7.933506033330E-01 4.323012486311E-01 -7.940717456326E-01 4.240520035036E-01 1.165593745318E-01 -2.078769277233E+00 3.169721360866E-01 -1.118208116185E-01 7.388083715352E-01 -5.228555470842E-01 -2.274287849276E+00 6.031925997036E-01 -2.346130876676E+00 -1.378300846303E+00 1.689405706678E+00 1.277594454185E+00 2.802653494448E-01 -3.726789977955E-01 8.707054110433E-02 1.216172204443E-01 2.643613089766E+00 3.793881580326E+00 3.413650594423E+00
 -3.898421886903E-01 -8.273194481690E-02 8.453561132110E-02 -2.542262684694E+00 2.353270459050E+00 -3.212771222206E+00 -1.170876185009E+01 -4.358288952602E+00 1.133942924900E+00 -6.803169378618E+00 4.897374550061E+00 2.681962705320E+00 -3.168234115415E-01 -1.286233582742E+00 -1.519809157667E+00 5.236241268724E-01 1.581741573926E+00 1.336536502539E+00 2.377811797793E+00 -3.631584885556E+00 -1.507953111802E+00 -1.767458314442E+00 5.871321486718E+00 -2.119643912082E+00 -4.136219638619E-01 1.986038434976E+00 1.141729535836E+00 2.264481625030E+01
 1.934525277992E+00 2.402548913098E+00 6.861145358056E-01 8.045759239406E-01 -5.325377319760E+00 3.849423386386E+00 -2.968371600799E+00 1.079456690874E+00 1.059983643541E+00 2.725582686583E+00 -3.984269501038E+00 -5.062046469003E-01 1.439192919973E+00 1.824840247384E+00 2.549124467855E+00 -1.308490656366E+00 2.620714381967E-01 -2.151982077635E-01 -1.029878639227E+00 -1.653316516659E+01 -4.259350549657E+00 5.787862436236E+00 -6.704078363580E+00 3.308788153351E+00 -3.012006696422E-01 6.382938515477E-01 -1.199375534823E+00 -8.330478851513E+00 2.735442305087E+01
 -1.061141295599E-01 1.177103303260E+00 1.340084487317E+00 7.366468042433E-01 5.824721568528E+00 -3.051638447773E+00 -3.975303461684E+00 -7.790951120903E-01 1.424264635321E+00 4.472937671130E+00 -8.274538573387E-01 -7.066017080998E-01 9.232261126668E-01 3.498090742514E-01 -1.156706116086E+00 -1.865441975850E-01 1.689837055429E+00 -4.188450892098E-01 -2.458712756893E+00 -6.390566053127E+00 1.775250683863E-01 -9.291967161226E-01 4.503921132610E+00 -3.089110208827E-01 1.125041089023E+00 8.306083065416E-01 -1.093853122447E+00 2.349531721154E+00 6.411036560821E+00 2.367682269647E+01
 2.116171150156E-01 -2.920791506732E-01 -3.932413549052E-01 2.764985860759E-01 7.596774688646E-03 8.467721721493E-01 1.060492048006E+00 -6.369177385308E-01 1.658100084389E-03 2.707955451096E+00 1.701947773719E-01 -1.135722017282E+00 -5.604926706441E-01 -2.816468294147E+00 5.702158826533E-02 1.421985939834E-01 3.041991201675E+00 1.175569545610E+00 -2.093424980186E+00 -6.900112278935E-01 4.111954597971E-01 2.173714328663E-01 8.601918698672E-02 4.133015353766E-01 -1.325216996436E+00 -3.292738538728E-01 -8.160413229326E-01 -7.022156054152E-01 9.433153976903E-01 -1.530332477087E+00 9.457219445325E+00
 -2.016336245957E-01 -3.313815432200E-01 -2.122834513130E-01 8.671185079180E-02 -5.302261013578E-01 1.010354265407E-01 4.586786996000E-01 2.336341235065E-02 2.790567675883E-01 5.917751572739E-01 9.536978214236E-01 -4.491824929967E-01 -1.988557233140E-01 2.664513568897E-01 4.113893026734E-01 1.944608769882E-01 4.821795412189E-01 8.046923769173E-01 -7.633504641255E-01 2.245980268324E-01 3.132720771309E-01 -5.344519789407E-01 4.128165190305E-03 -1.186817706052E+00 9.599471758333E-01 5.846643238764E-01 5.906262244387E-01 -6.348738418268E-01 -6.408693088167E-01 1.545817742217E+00 -5.944310920168E+00 1.268848600537E+01
 -1.150134601140E-01 -6.992625135681E-01 3.345062150966E-01 1.202347509876E-01 -1.357741282401E+00 7.100449929001E-02 -3.328574821067E-01 5.056763245970E-02 -4.574553229164E-02 5.851208748838E-01 4.384761464806E-01 1.501693661661E-02 1.387625490362E-02 -1.186995651344E-01 3.881896721127E-01 -1.416076871282E-01 8.610965113036E-01 7.753798050895E-01 -5.870013070913E-01 -8.232360160790E-01 -1.676891138551E-01 4.901711770041E-01 -7.023728111911E-01 2.006299576376E-01 -6.286474368123E-01 5.504568790435E-01 -1.097914022422E-01 -5.606559665561E-01 1.428140824546E+00 8.987068798708E-02 -3.054641907673E-01 3.440342341971E+00 1.470913110799E+00
 -1.106920236778E-01 -4.480609946209E-01 2.049585125204E+00 -8.170133730018E-02 -3.014177478129E+00 6.010379052007E-01 -5.199325873355E-01 -2.363494654608E+00 -3.862522750495E-01 -1.192417112949E+00 5.027753406802E-01 -2.951087797987E-01 5.650237217638E-02 -9.333652987218E-01 1.577919778449E+00 7.070400894659E-02 1.093675423249E+00 6.612157544209E-01 7.927350659691E-01 -1.930684398946E+00 7.271095670983E-03 1.211078083611E+00 2.050298584730E+00 6.352771236841E-02 8.770217382044E-01 -1.716488406455E+00 -2.474840633551E-01 -1.303864363879E+00 1.897735450907E+00 2.238818803383E-01 -9.155184365748E-01 4.117782251511E-01 4.769074380233E-01 1.081613933887E+01
 -1.059482862090E+00 -6.976636808139E-01 2.048793424920E+00 -1.604605248514E+00 -9.332135518850E-01 -3.056634794820E+00 -1.745189963277E+00 3.497624968441E+00 -1.876135962990E+00 1.360797439282E+00 -9.339848187195E-01 1.696715690086E+00 2.625674035570E-01 7.671549088084E-02 -2.819472501509E-01 -2.803169251505E-01 3.747770575736E+00 1.879068456206E+00 1.364114254793E+00 -2.957511728164E+00 -1.562922880067E+00 6.623745637896E-01 -1.834329515748E+00 -2.403108446228E-01 -3.709447397999E+00 -3.391365308478E+00 -2.408833260361E+00 -3.944711966156E-01 1.064941287923E+00 -1.579683810756E+00 2.046616157489E-01 -1.892834727609E+00 -1.584612401320E-01 3.551741465047E+00 8.049429935642E+00
 4.871586529947E-01 1.305216840014E+00 -5.663999727203E-01 6.403052096464E-01 4.097678284869E-01 -4.886114473488E-02 -9.207223402113E-02 1.502949792859E-01 5.672352384750E-02 1.394869111092E+00 -2.816516761160E-02 -8.866860915836E-02 1.757797276472E-01 3.648126275788E-01 -3.814610678380E-01 7.550674725618E-02 -5.676335615997E-01 -3.523912696316E-01 -1.057829239666E+00 1.794020976155E+00 2.841292041289E-01 -6.844503338755E-02 -3.661581426279E-01 6.728533091690E-01 5.646589326664E-01 -2.854431465497E-01 1.403239824564E-01 -1.408320701725E+00 -1.580712421236E-01 1.477745622003E+00 5.000025124540E-01 -7.381164406496E-02 -5.029612310868E-02 -1.211458771628E+00 -9.976663334389E-01 8.830052601110E-01
 -7.853808014545E-01 -5.898750295682E-01 1.094451575968E+00 -2.597200520338E+00 -4.584929553540E+00 3.458100148377E+00 -4.265949157491E-01 3.655603646626E+00 -1.131478184343E+00 2.940028418582E+00 2.608523928593E-01 -4.023001881685E-01 4.600249667647E-01 -9.385868067945E-01 3.997517315427E-01 -1.113565702053E-01 1.736720433506E+00 4.975501989044E-01 -2.154018868193E+00 -4.093749293016E+00 -8.100773300718E-01 -1.178408604915E+00 -1.959878184319E+00 -2.118495260620E+00 -1.576052853612E+00 -5.658761381822E-01 -4.774625260379E-01 -1.063406504236E+00 3.223708089698E+00 -1.833424985280E+00 -3.359544549728E-01 -2.796087403801E-01 2.342863309736E-01 -9.177828903853E-01 3.280998613447E+00 -2.489889671031E-01 6.197387560113E+00
 -1.169623245462E-01 -1.401498167439E+00 2.958757614546E-01 -1.939746563048E+00 -5.339252835912E+00 7.827145956474E+00 -8.924532563936E-01 -1.133746968419E+00 6.372795209860E-01 -5.863708343840E-01 2.163127116180E+00 -1.203813795722E+00 2.371231601617E-01 -1.983711935998E+00 6.563580743299E-01 3.686520944059E-01 -1.390618877442E-02 -7.657345213712E-02 -1.842103640980E+00 -1.532952566093E-01 1.001015375826E-01 -5.591734561064E-01 -8.607702581597E-02 -8.935287033560E-01 1.279834779436E+00 1.071634202975E+00 1.923051974560E+00 1.505457069446E+00 5.159092080726E-01 -4.007131634313E+00 2.674479745207E-01 1.213261265385E+00 7.730017911714E-01 1.750225288409E+00 -1.301419548111E+00 -3.338033229482E-01 2.653981782609E+00 6.798121485607E+00
 2.648549437655E-01 1.375282054370E+00 1.446326863335E-01 7.790457240581E-01 2.064356354963E+00 -2.691637804116E+00 9.113331312666E-02 4.933949729793E-01 2.201420022317E-02 -7.864034997757E-01 -2.813288729947E-02 9.022429287787E-01 3.052544564855E-02 3.450561350505E-01 -3.294857629873E-01 -1.697531251871E-02 7.703638765418E-01 7.545075894979E-01 1.346232915968E+00 -1.840626264647E+00 1.628462654434E-01 -2.994943780352E-01 8.005676696127E-01 7.498013559550E-01 -8.898243996611E-01 1.345411368495E-01 -5.687949207405E-01 8.326558199772E-01 -3.952819868383E-01 2.561734884210E+00 -2.583316139358E-01 7.543812190041E-01 1.843790514783E-01 1.044516143141E+00 6.163123035965E-01 -1.651807904834E-01 -1.567362340987E+00 -1.931631733164E+00 1.536158914848E+00
 -1.707218203914E+00 -5.195874371559E+00 2.123429444278E-01 2.438428316138E-01 5.852281849124E-01 1.847371884392E+00 -3.553292100319E-01 9.174721771460E-01 7.003402799410E-01 2.840602781109E-01 -4.148026215947E-01 -4.181358668159E-01 -2.153003363441E-01 -9.212437151981E-02 -1.984290780292E-01 -1.569596249336E-01 -1.040407283960E+00 -1.296584448467E+00 -5.814812393045E-01 4.205680107264E-01 3.047753244098E-01 -2.242365002093E+00 1.207146660818E+00 -9.066528626673E-01 1.106479932609E+00 1.314790714979E+00 5.712190664546E-01 -5.985702203776E-01 1.700289740582E+00 5.031213991343E+00 3.980654450449E-01 8.790560865191E-01 1.847555499710E-01 -7.456214652426E+00 -4.270942933434E+00 1.159876414384E+00 1.541506999180E+00 1.333007195333E-01 -1.477623862060E+00 1.072502697063E+01
 -4.330171872643E+00 -1.602824704778E+01 2.467195942194E+00 -2.047374326018E+00 2.194355427207E-01 -4.752263248558E-01 1.000769858391E+00 -1.853115260820E+00 5.586026234044E-01 1.338164730414E+00 4.763007962090E-02 -1.537791466551E+00 -4.306690105105E-01 4.689188014095E-01 -9.260954393733E-01 -6.998935949987E-01 -2.461195294430E+00 -2.214498835960E+00 -2.358826146999E+00 2.572919364839E+00 9.579496017601E-01 5.557776912990E-01 -1.558880659725E+00 2.746104810405E+00 1.379765188683E+00 9.376962745473E-01 1.593735240650E+00 3.402356920169E+00 -2.909685896700E+00 -4.768178739804E+00 1.811771056572E+00 -1.208557630469E-01 4.945695316721E-01 -5.425164144393E+00 -3.673104874310E+00 -9.983677453368E-01 -4.820411048410E-01 2.468704768603E+00 -2.327213740907E+00 7.119547279307E+00 2.223099642170E+01
 2.371783408547E+00 4.749114208690E+00 -2.223195183509E+00 -4.526298668920E-01 -3.705982567483E-01 1.088995325853E+00 1.464809799075E+00 -2.183815396995E-01 1.770866478050E+00 -1.699214967727E+00 -1.211973583618E-01 -2.783433813916E-01 -1.601311781177E-01 -1.468472416057E-01 5.208668903861E-02 6.539244819245E-01 -5.715376650249E-01 3.627709186086E-01 1.470700858787E+00 -6.285952750919E-01 -1.777137593139E+00 1.517538189102E+00 1.897873028061E+00 -4.814918392509E+00 -6.258666980044E-01 8.675507368291E-01 9.409380966805E-01 3.630937139706E+00 -3.319766378593E+00 -8.419469565456E+00 -1.886981261865E+00 -3.203595415099E-01 -7.646653200078E-01 2.825498373067E+00 1.052950887412E+00 -1.858336658960E+00 -2.184954027635E+00 1.013289852402E+00 9.314195919338E-01 -9.489898293662E+00 -2.329949962802E+00 1.930425820466E+01
 1.300703750693E-01 5.182248516650E-01 6.115778820770E-01 1.501378611240E-01 3.140559114474E-01 3.886031863229E-01 -3.939601866775E+00 7.846915789097E-01 7.002344475723E-01 -2.337215235051E+00 -8.282125716046E-01 2.547053788824E-01 -2.044380919346E+00 -3.571570913556E-01 5.871648751760E+00 3.391481768284E-01 -2.395076664913E+00 -1.085897262672E+00 3.028111804884E+00 4.909890891011E-01 -6.161399807505E-01 -2.237557134455E-01 1.172969090833E+00 -1.275204430941E+00 2.320170908990E+00 -1.669711515160E+00 -4.992157401731E-03 9.141818981189E-01 -8.118148687172E-01 2.474426981205E+00 -1.067015783533E+01 4.413485824560E+00 -5.023170654251E-01 2.959791129209E+00 2.327707114783E-01 -7.403677264035E-01 -4.656850499583E-01 -7.538928826546E-01 4.749924483088E-01 -1.667344107702E+00 -3.259833744639E+00 4.077591504167E+00 1.692392113453E+01
 1.026112996172E+00 1.598298569195E+00 -1.214563099829E+00 1.669349592627E+00 3.666615954976E-01 2.063983460955E+00 -1.234862218124E+00 6.472209256992E-01 1.122064907467E+00 1.330189284900E+00 1.968817539830E+00 -8.120010673614E-01 -3.770851237310E+00 -3.573464660993E+00 7.879282454936E+00 2.589451540654E+00 -3.232638153242E+00 -6.412909767014E+00 5.205389893884E-01 -1.395831879727E+00 1.229021924692E+00 3.950597957668E-01 1.086103231658E-02 -4.001606510915E-01 2.249078485622E+00 -1.018776055042E+01 -1.929186645350E+00 -2.251165589246E+00 -1.011485878326E+00 -1.888396672835E+00 1.949569540855E+00 -1.645082116757E+00 -5.766496807000E-01 1.794520169575E+00 8.536574751104E-01 5.170449233999E-01 -8.621279365884E-01 1.838797015290E-01 -2.860934413370E-01 -1.487353298561E+00 1.576067163168E-01 1.664568804612E+00 3.152104549749E+00 1.975550706299E+01
 -3.401550759631E-01 4.127548780740E-01 -9.968958861779E-01 -1.382090549646E+00 -4.691234720004E-01 2.746133224740E-02 2.322424086243E+00 -2.354887018072E+00 -7.803381532912E-02 -1.705883410359E+00 1.016867030703E+00 1.177634722193E+00 5.347724467327E+00 7.461767411999E+00 -1.120509472329E+01 4.656784753085E-01 -5.391126493641E+00 -6.314352350680E+00 -3.462810317525E-01 1.024761535512E-01 -1.047643078190E+00 -6.339805792326E-02 1.272655951241E+00 8.442833180388E-02 6.605189444333E-01 -2.967251080298E+00 1.592824424660E+00 2.240459952664E+00 1.291590831011E-01 6.064197908524E-01 -5.508673796950E-01 -4.569633419523E-01 -7.025900016055E-01 -1.558920064223E+00 1.260654769822E+00 3.151715261650E-01 2.125974655909E+00 1.271928491944E+00 -1.028991787659E+00 7.880160009429E-01 1.513120200717E+00 -7.878860523973E-01 -5.867811007882E+00 -6.313389728894E-01 2.016754625022E+01
 -4.530817024466E-01 -1.787536530829E+00 -3.349479137805E-01 -2.169376158551E-01 -1.473123652738E-01 -2.305798641810E-01 8.693670015891E-02 -5.722939341111E-02 -2.199107408581E-02 1.140620978677E+00 -1.503154808036E+00 -2.613496826492E-01 2.366026950067E-01 6.599798781592E-01 -9.917675957673E-01 -7.242848159442E-01 4.630579398450E-01 1.790058676169E+00 -1.211698816406E+00 1.313970923259E+00 -7.285723929076E-01 -1.136183806263E+00 7.620039958247E-02 1.704761410543E+00 1.086289834593E-01 1.073044792214E+00 2.511504634170E-01 -1.561525790789E+00 1.324729596397E-01 -3.601438360050E+00 6.487726731545E-01 -3.296342336108E-01 -8.007393267453E-02 -1.827763317685E+00 -6.227682694791E-01 1.001132499830E-01 3.190748507601E-01 1.018165108291E-01 -8.382223826888E-01 1.689069911921E+00 1.851190080322E+00 -1.577502096840E+00 -1.803142632020E+00 -4.309562035058E+00 -9.841084563978E-01 4.310007499211E+00
 -2.275834265178E-01 4.685333808765E-01 -4.334937434893E-01 -9.381254012119E-01 -5.587668363713E-03 8.561990831657E-01 3.001160028489E+00 1.014838015625E-01 2.539898206979E-01 -3.567740083559E-01 2.819068812629E-01 -1.994225493885E+00 -3.345809154470E-01 -1.487842355642E+00 5.477120137040E-01 -4.620904783753E-01 1.687156712818E+00 7.374384364319E-01 -6.270526594630E-01 -4.156555449129E+00 2.358890077186E+00 -2.186679214012E+00 -2.827229743511E+00 4.654829445013E+00 -4.947763984280E-01 -5.138256022792E-02 -1.566733371646E+00 -2.028593215334E+00 3.323680202517E-01 -2.223847858119E+00 1.222720433649E+00 -2.547709541891E-01 -1.648249378510E-02 -1.419001123296E-01 -1.165202856278E+00 -4.631573381258E-01 7.410827903335E-02 1.003386447578E+00 -6.042991825475E-01 1.168011929841E+00 8.869021733750E-01 -3.061845984818E+00 -3.931956114298E+00 -3.461387439757E+00 -7.233025140429E-01 4.427091174534E+00 2.120421644031E+01
 -3.641693213625E-01 -8.820656047272E-01 -1.817893277590E+00 -4.197971885549E-01 2.575736287757E+00 -2.261053195766E+00 2.346690454980E+00 2.489066772533E-01 -1.867091946951E+00 1.260715487347E+00 -1.559153808868E+00 1.535401483206E+00 -1.712799099757E+00 -7.203863362226E-01 7.766105976885E-01 8.059742087886E-01 -1.953185476326E+00 -9.910582439082E-01 -1.076884957273E+00 6.073997478083E+00 -1.748649427041E+00 -1.230335923450E+00 5.395134389797E-01 1.452907858992E-02 -9.491950599838E-01 2.092050801163E-01 3.899958955969E-01 -4.334883946120E+00 -5.266118492291E+00 -1.384153087833E+01 6.493963131625E-01 9.678604556525E-01 -7.576461287657E-02 -1.849163306523E+00 2.484739320423E+00 -1.770207363074E-03 1.219912853125E+00 -1.405374367114E+00 -1.206756138797E+00 -9.624897105103E-01 -4.760209141737E-01 -9.759916396846E-01 -1.639636920681E+00 -1.619472854912E-01 -3.229721823064E-01 5.827708377673E+00 -1.313759405689E+00 2.354409096679E+01
 6.347272789955E-01 1.337566717375E+00 1.531905331979E-04 6.726712655450E-01 2.491903705635E-01 -1.506482328753E+00 -8.858390042481E-01 6.228280064634E-01 3.336816580075E-03 -1.057161703060E+00 7.772193852552E-01 4.112866696276E-01 2.735080542606E-01 5.589443456485E-02 -7.273536972236E-01 2.351309520252E-01 -5.244228542717E-01 7.551245542685E-03 1.334414757614E+00 2.597230926068E-02 9.225275774449E-01 1.943497456113E-01 -1.185398489071E+00 2.149265529115E+00 5.567143862308E-01 7.606971488175E-01 7.453957753429E-01 3.704623924800E-01 -1.168894313124E+00 6.107550320808E-01 -1.065684716192E-01 9.516440815193E-01 3.487659007980E-01 1.094558752483E+00 -7.884944047446E-01 2.391653444569E-01 -1.519587017211E+00 9.746011311063E-02 6.227624512140E-01 -1.335655800809E+00 -1.201310475270E+00 5.613435990634E-01 -2.403888081103E-01 2.621639183174E-01 -5.045973238140E-01 -5.246822439736E-01 1.482633206968E+00 -1.917648233032E+00 1.559797163396E+00
 2.779997016838E-01 1.688247566873E+00 2.896090986759E-01 -4.225724182382E-01 1.134545715610E+00 4.095082576898E-01 -5.190045505884E-01 1.879770502666E-01 -1.013189268023E+00 -1.860626494185E-01 -3.777668123758E-01 -4.300381337193E-01 -3.013140682467E-02 -1.997201975319E-01 8.319036104457E-02 1.193298626419E-01 3.410778561110E-01 1.180678002045E+00 1.080527900037E+00 -1.645557183553E+00 4.355336669952E-01 -2.578663291875E-01 -8.042956831221E-01 1.392650236790E+00 1.701638297165E+00 -1.822059033844E-01 1.325122685359E+00 2.184366193654E+00 3.827261360732E-01 2.284246296777E-02 -7.238810217476E-01 7.048665742983E-01 6.974157838768E-02 8.185140541208E-01 3.950453574995E-01 -2.568890643134E-01 -6.441807428614E-02 -5.851922708431E-01 9.246913305870E-01 -1.569067621600E+00 -1.033755779997E+00 6.249306382372E-01 1.929279336522E+00 4.299332443677E-01 -3.648657992503E-01 -2.134827963975E+00 -1.183003679093E+01 2.974365077107E+00 -8.270968292680E-01 1.135734827085E+01
 -1.023740867474E+00 -2.305302203897E+00 -9.482326229923E-03 -3.961319313080E-01 -3.057128082825E-01 1.114802473082E+00 1.088294346086E+00 2.217237741432E-01 -8.774599433313E-01 -4.888972023923E-01 9.270557868684E-01 -3.589927864396E-01 -4.568074986788E-01 9.764158864954E-01 -7.291892779094E-01 8.479679703861E-02 -5.801145530231E-01 8.439031175103E-01 -3.108220490874E-01 3.391485959641E+00 2.772068244915E-01 3.208529044277E+00 2.251469834965E+00 -1.526320848294E+01 6.189994818907E-01 1.004283772134E+00 -8.471395167277E-01 -1.258999473073E+00 -1.752525331466E+00 -6.286054726299E-01 8.928693208365E-01 -4.666558651159E-01 -1.133070350223E-02 -1.548919940142E+00 6.508365291783E-01 -3.918959872299E-02 2.021610753586E+00 -7.766028318764E-01 -1.402082787609E+00 2.006334043882E+00 -3.276160442225E-02 -1.310162238600E+00 -1.899406321078E+00 -6.863887493927E-01 -9.580031207957E-01 -1.036977736935E+00 1.217121627146E+00 -8.626277756198E-01 -9.801688777199E-01 -4.915782993547E+00 1.911469239752E+01
 -2.155818689190E-01 -2.957182580348E-01 -1.038904561020E-01 -1.290722089228E-01 5.292542185446E-01 6.218537923276E-01 -4.144938305697E-01 -1.154016051609E-01 1.112594706374E-01 5.399646374197E-02 1.438272528836E-01 4.591049215334E-02 3.782595899014E-01 9.859690437276E-01 -1.024787420604E+00 -1.118374987558E-01 -3.526143806996E-01 4.989830635474E-01 -1.810862594282E-01 1.672254585685E+00 1.468465546334E-01 -6.522483799053E-01 1.397215438660E+00 -8.703651264722E-01 -3.845968095199E-01 1.112913273974E-01 -1.038561709244E-03 8.983524846279E-01 -2.325488798099E+00 -2.578428149639E-01 -6.519297536370E-03 -6.584028861692E-01 -3.502826770555E-01 -5.862874307674E-01 -7.458584997811E-02 1.268895075246E-01 -7.126820097595E-02 2.282046466525E-02 -8.800987382233E-02 2.585732383709E-01 8.829106429888E-02 1.763232322970E-01 -4.779167206910E-02 -7.582708324854E-01 1.694925999205E-01 3.707569208045E-01 -2.027117520875E-01 3.388810354041E-01 -1.061482506936E-01 -3.475662053229E-01 4.247923886722E-01 5.259205857759E-01
 -4.256105059775E-01 -2.494014973655E+00 1.294975580414E+00 2.100397906602E+00 -5.614231290760E+00 -6.800975072157E+00 -2.552854527951E-01 -3.711038238217E-01 -6.865779563108E-01 -9.142217496650E-01 -7.660171159085E-01 4.645558678868E-02 3.562865988858E-01 4.697730917590E-01 4.538233304544E-01 -8.030537771417E-01 2.245533451879E-01 -1.759463926786E-01 1.480663943968E+00 1.748749834142E+00 -6.938552524180E-01 1.840526823275E-01 1.330367314585E+00 4.158703159632E-01 2.572970575740E-01 9.960563515875E-02 -1.320567187327E-01 -1.367303931071E+00 6.062026601064E-01 4.638309321049E-02 -7.252058283742E-01 6.313319916986E-02 3.220886779139E-01 1.353780757394E+00 1.320460845189E-01 -1.429606931424E-01 -9.575018747065E-01 -2.227443468287E+00 2.621020778217E-01 -5.544171084841E-01 4.709662061472E-01 -2.925724098901E-01 1.030298772001E+00 -1.295644771847E+00 -1.386338977991E+00 1.200760139000E-01 -1.264158349536E-01 -1.597377800983E+00 2.644396411125E-01 -8.661176048156E-01 8.541178275026E-01 -4.463505724954E-01 7.633206237667E+00
 -9.006826104709E-01 -3.722056218376E+00 1.467852912419E+00 1.538762705967E+00 -5.325324181955E+00 -9.910359287216E+00 -8.425914069276E-01 1.434471080235E-01 -1.009944705853E+00 -3.743478598463E-01 -2.067213884139E-02 5.263814397592E-01 -1.380109857341E-01 -5.500760771999E-01 3.804981418405E-01 -5.479652453919E-01 7.102603107316E-01 -7.074736820978E-01 8.425201888642E-01 2.551157300101E-01 -7.573285365251E-01 -4.639449484451E-01 7.723343078623E-01 9.997622706512E-01 1.065840032237E+00 -1.038432343428E+00 2.375882443825E-02 1.191113099983E+00 -7.839800958649E-01 -9.262799517013E-01 -1.792901296902E-01 5.261301270700E-01 4.684352693450E-01 1.611191843037E-01 4.822878977651E-01 -3.219126316223E-01 -5.659092671584E-01 -2.434961921277E+00 1.276069770798E-01 2.727828105363E-02 2.991048276475E+00 -6.521818656050E-01 -1.736810418798E-01 -3.181787982141E-01 -3.352074811883E-02 3.914033347599E-01 6.365147655528E-01 -2.764418020639E-01 2.502270196603E-01 -8.556681774275E-01 7.760061367280E-01 -6.647469667723E-01 8.070520659827E+00 1.009944760585E+01