 Job started on host yaesakura
 at Mon Jul 15 19:41:17 2019

 +-------------------------------------------------+
 |                                                 |
 |      CCC   AA    SSS  TTTTT  EEEEE  PPPP        |
 |     C     A  A  S       T    E      P   P       |
 |     C     AAAA   SS     T    EEE    PPPP        |
 |     C     A  A     S    T    E      P           | 
 |      CCC  A  A  SSS     T    EEEEE  P           |
 |                                                 |
 +-------------------------------------------------+
 |                                                 |
 | Materials Studio CASTEP version 2017            |
 | Ab Initio Total Energy Program                  |
 |                                                 |
 | Authors:                                        |
 | M. Segall, M. Probert, C. Pickard, P. Hasnip,   |
 | S. Clark, K. Refson, J. R. Yates, M. Payne      |
 |                                                 |
 | Contributors:                                   |
 | P. Lindan, P. Haynes, J. White, V. Milman,      |
 | N. Govind, M. Gibson, P. Tulip, V. Cocula,      |
 | B. Montanari, D. Quigley, M. Glover,            |
 | L. Bernasconi, A. Perlov, M. Plummer,           |
 | E. McNellis, J. Meyer, J. Gale, D. Jochym       |
 | J. Aarons, B. Walker, R. Gillen, D. Jones       |
 | T. Green, I. J. Bush, C. J. Armstrong,          |
 | E. J. Higgins, E. L. Brown, M. S. McFly         |
 |                                                 |
 | Copyright (c) 2000 - 2016                       |
 |                                                 |
 | Please cite                                     |
 |                                                 |
 |     "First principles methods using CASTEP"     |
 |                                                 |
 |         Zeitschrift fuer Kristallographie       |
 |           220(5-6) pp. 567-570 (2005)           |
 |                                                 |
 | S. J. Clark, M. D. Segall, C. J. Pickard,       |
 | P. J. Hasnip, M. J. Probert, K. Refson,         |
 | M. C. Payne                                     |
 |                                                 |
 |       in all publications arising from          |
 |              your use of CASTEP                 |
 |                                                 |
 +-------------------------------------------------+
 
 
 This version was compiled for x86_64-windows-msvc2008 on May 05 2016
 Intel(R) Math Kernel Library Version 11.1.2 
 Fundamental constants values: CODATA 2010
 
License checkout of MS_castep successful
 
 
 Pseudo atomic calculation performed for B 2s2 2p1
 
 Converged in 16 iterations to a total energy of -70.4540 eV
 
 
 Pseudo atomic calculation performed for N 2s2 2p3
 
 Converged in 22 iterations to a total energy of -262.5877 eV
 
 Calculation parallelised over 8 processes.
 Data is distributed by G-vector(2-way) and k-point(4-way)

 ************************************ Title ************************************
 CASTEP calculation from Materials Studio

 ***************************** General Parameters ******************************
  
 output verbosity                               : normal  (1)
 write checkpoint data to                       : BN.check
 type of calculation                            : single point energy
 stress calculation                             : off
 density difference calculation                 : off
 electron localisation func (ELF) calculation   : off
 Hirshfeld analysis                             : on
 unlimited duration calculation
 timing information                             : on
 memory usage estimate                          : on
 write final potential to formatted file        : off
 write final density to formatted file          : off
 write BibTeX reference list                    : on
 write OTFG pseudopotential files               : on
 checkpoint writing                             : both castep_bin and check files
  
 output         length unit                     : A
 output           mass unit                     : amu
 output           time unit                     : ps
 output         charge unit                     : e
 output           spin unit                     : hbar/2
 output         energy unit                     : eV
 output          force unit                     : eV/A
 output       velocity unit                     : A/ps
 output       pressure unit                     : GPa
 output     inv_length unit                     : 1/A
 output      frequency unit                     : cm-1
 output force constant unit                     : eV/A**2
 output         volume unit                     : A**3
 output   IR intensity unit                     : (D/A)**2/amu
 output         dipole unit                     : D
 output         efield unit                     : eV/A/e
 output        entropy unit                     : J/mol/K
  
 wavefunctions paging                           : none
 random number generator seed                   : randomised (194118710)
 data distribution                              : optimal for this architecture
 optimization strategy                          : balance speed and memory

 *********************** Exchange-Correlation Parameters ***********************
  
 using functional                               : Perdew Wang (1991)
 relativistic treatment                         : Koelling-Harmon
 DFT+D: Semi-empirical dispersion correction    : off

 ************************* Pseudopotential Parameters **************************
  
 pseudopotential representation                 : reciprocal space
 <beta|phi> representation                      : reciprocal space
 spin-orbit coupling                            : off

 **************************** Basis Set Parameters *****************************
  
 plane wave basis set cut-off                   :   250.0000   eV
 size of standard grid                          :     2.0000
 size of   fine   grid                          :     2.4000
 size of   fine   gmax                          :    19.4411   1/A
 largest prime factor in FFT                    :          5
 finite basis set correction                    : none

 **************************** Electronic Parameters ****************************
  
 number of  electrons                           :  8.000    
 net charge of system                           :  0.000    
 treating system as non-spin-polarized
 number of bands                                :          8

 ********************* Electronic Minimization Parameters **********************
  
 Method: Treating system as metallic with density mixing treatment of electrons,
         and number of  SD  steps               :          1
         and number of  CG  steps               :          4
  
 total energy / atom convergence tol.           : 0.1000E-05   eV
 eigen-energy convergence tolerance             : 0.2500E-06   eV
 max force / atom convergence tol.              : ignored
 convergence tolerance window                   :          3   cycles
 max. number of SCF cycles                      :        100
 number of fixed-spin iterations                :         10
 smearing scheme                                : Gaussian
 smearing width                                 : 0.1000       eV
 Fermi energy convergence tolerance             : 0.2721E-13   eV
 periodic dipole correction                     : NONE

 ************************** Density Mixing Parameters **************************
  
 density-mixing scheme                          : Pulay
 max. length of mixing history                  :         20
 charge density mixing amplitude                : 0.5000    
 cut-off energy for mixing                      :  250.0       eV
 charge density mixing g-vector                 :  1.500       1/A

 *********************** Population Analysis Parameters ************************
  
 Population analysis with cutoff                :  3.000       A

 *******************************************************************************
  
 
                           -------------------------------
                                      Unit Cell
                           -------------------------------
        Real Lattice(A)                      Reciprocal Lattice(1/A)
   0.0000000   1.8172721   1.8172721       -1.7287410   1.7287410   1.7287410
   1.8172721   0.0000000   1.8172721        1.7287410  -1.7287410   1.7287410
   1.8172721   1.8172721   0.0000000        1.7287410   1.7287410  -1.7287410
 
                       Lattice parameters(A)       Cell Angles
                    a =    2.570011          alpha =   60.000000
                    b =    2.570011          beta  =   60.000000
                    c =    2.570011          gamma =   60.000000
 
                       Current cell volume =   12.003001       A**3
 
                           -------------------------------
                                     Cell Contents
                           -------------------------------
                         Total number of ions in cell =    2
                      Total number of species in cell =    2
                        Max number of any one species =    1
 
            xxxxxxxxxxxxxxxxxxxxxxxxxxxxxxxxxxxxxxxxxxxxxxxxxxxxxxxxxxxx
            x  Element    Atom        Fractional coordinates of atoms  x
            x            Number           u          v          w      x
            x----------------------------------------------------------x
            x  B            1         0.000000   0.000000   0.000000   x 
            x  N            1        -0.250000   0.750000  -0.250000   x 
            xxxxxxxxxxxxxxxxxxxxxxxxxxxxxxxxxxxxxxxxxxxxxxxxxxxxxxxxxxxx
 
 
                         No user defined ionic velocities
 
                           -------------------------------
                                   Details of Species
                           -------------------------------
 
                               Mass of species in AMU
                                    B   10.8100004
                                    N   14.0070000
 
                          Electric Quadrupole Moment (Barn)
                                    B    0.0405900 Isotope 11
                                    N    0.0204400 Isotope 14
 
                          Files used for pseudopotentials:
                                    B B_00PBE.usp
                                    N N_00PBE.usp
 
                           -------------------------------
                              k-Points For BZ Sampling
                           -------------------------------
                       MP grid size for SCF calculation is  7  7  7
                            with an offset of   0.000  0.000  0.000
                       Number of kpoints used =            20
 
                           -------------------------------
                               Symmetry and Constraints
                           -------------------------------
 
                      Maximum deviation from symmetry = 0.181727E-14     ANG
 
                      Number of symmetry operations   =          24
         There are no ionic constraints specified or generated for this cell
                      Point group of crystal =    30: Td, -43m, -4 3 m
                      Space group of crystal =   216: F-43m, F -4 2 3
 
             Set iprint > 1 for details on symmetry rotations/translations
 
                         Centre of mass is NOT constrained
 
                         Number of cell constraints= 6
                         Cell constraints are:  0 0 0 0 0 0
 
                         External pressure/stress (GPa)
                          0.00000   0.00000   0.00000
                                    0.00000   0.00000
                                              0.00000
  
+---------------- MEMORY AND SCRATCH DISK ESTIMATES PER PROCESS --------------+
|                                                     Memory          Disk    |
| Baseline code, static data and system overhead        0.0 MB         0.0 MB |
| BLAS internal memory storage                          0.0 MB         0.0 MB |
| Model and support data                                3.6 MB         1.2 MB |
| Electronic energy minimisation requirements           0.4 MB         0.0 MB |
| Force calculation requirements                        0.3 MB         0.0 MB |
|                                               ----------------------------- |
| Approx. total storage required per process            4.0 MB         1.2 MB |
|                                                                             |
| Requirements will fluctuate during execution and may exceed these estimates |
+-----------------------------------------------------------------------------+
------------------------------------------------------------------------ <-- SCF
SCF loop      Energy           Fermi           Energy gain       Timer   <-- SCF
                               energy          per atom          (sec)   <-- SCF
------------------------------------------------------------------------ <-- SCF
Initial  -1.31079125E+002  0.00000000E+000                         0.69  <-- SCF
      1  -3.37606491E+002  1.09752469E+001   1.03263683E+002       0.73  <-- SCF
      2  -3.51852113E+002  6.81831843E+000   7.12281073E+000       0.78  <-- SCF
      3  -3.52000637E+002  6.81689196E+000   7.42619318E-002       0.81  <-- SCF
      4  -3.51088966E+002  8.51748576E+000  -4.55835436E-001       0.86  <-- SCF
      5  -3.51038563E+002  8.65874996E+000  -2.52012626E-002       0.91  <-- SCF
      6  -3.51027389E+002  8.88144338E+000  -5.58708677E-003       0.95  <-- SCF
      7  -3.51027860E+002  8.88299000E+000   2.35224854E-004       1.02  <-- SCF
      8  -3.51027865E+002  8.88443503E+000   2.84159832E-006       1.06  <-- SCF
      9  -3.51027866E+002  8.88447779E+000   1.36863659E-007       1.09  <-- SCF
     10  -3.51027865E+002  8.88439582E+000  -8.15350709E-009       1.14  <-- SCF
     11  -3.51027865E+002  8.88439183E+000  -5.04344781E-009       1.17  <-- SCF
------------------------------------------------------------------------ <-- SCF
 
Final energy, E             =  -351.0278654834     eV
Final free energy (E-TS)    =  -351.0278654834     eV
(energies not corrected for finite basis set)
 
NB est. 0K energy (E-0.5TS)      =  -351.0278654834     eV
 

Writing analysis data to BN.castep_bin

Writing model to BN.check
 
 ***************** Symmetrised Forces *****************
 *                                                    *
 *            Cartesian components (eV/A)             *
 * -------------------------------------------------- *
 *                   x            y            z      *
 *                                                    *
 * B         1      0.00000      0.00000      0.00000 *
 * N         1      0.00000      0.00000      0.00000 *
 *                                                    *
 ******************************************************
 
 Pseudo atomic calculation performed for B 2s2 2p1
 
 Converged in 16 iterations to a total energy of -70.4540 eV
 
 
 Pseudo atomic calculation performed for N 2s2 2p3
 
 Converged in 22 iterations to a total energy of -262.5877 eV
 
Charge spilling parameter for spin component 1 = 0.32%
 
     Atomic Populations (Mulliken)
     -----------------------------
Species   Ion     s      p      d      f     Total  Charge (e)
==============================================================
  B        1     0.66   1.72   0.00   0.00   2.38     0.62
  N        1     1.51   4.11   0.00   0.00   5.62    -0.62
==============================================================
 
            Bond              Population      Length (A)
============================================================
          B 1 -- N 1               2.59        1.57380
============================================================
 
 
     Hirshfeld Analysis
     ------------------
Species   Ion     Hirshfeld Charge (e)  Spin (hbar/2)
===================================================
  B        1                 0.16        0.00
  N        1                -0.16        0.00
===================================================
 

Writing analysis data to BN.castep_bin

Writing model to BN.check
 
 A BibTeX formatted list of references used in this run has been written to 
 BN.bib
 
Initialisation time =      0.28 s
Calculation time    =      0.98 s
Finalisation time   =      0.05 s
Total time          =      1.31 s
  
Overall parallel efficiency rating: Satisfactory (68%)                          
  
Data was distributed by:-
G-vector (2-way); efficiency rating: Good (77%)                                 
k-point (4-way); efficiency rating: Very good (80%)                             
  
Parallel notes:
1) Calculation only took 1.4 s, so efficiency estimates may be inaccurate.      
