#BIOSYM hessian 1
@Type: Hessian Update
@Units
 distance: 	A
 energy: 	Kcal/Mol
#header
@natom 19

#label
L1      L2      L3      L4      L5      L6      L7      L8      L9      L10     L11     L12     L13     L14     L15     L16     L17     L18     L19

#element
Li Li Li Li Li Li Li Li Li Li Li Li Li Li Li Li Li Li Li

#matrix
57
 3.482047513729E+01
 5.756256650671E+00 3.187777972754E+01
 -1.382307398772E+01 -4.915936509944E+00 6.472982028476E+01
 8.781433331521E+00 -9.082593930142E-01 -8.936842840138E+00 3.271638560133E+01
 2.186549309732E+00 -3.563530563347E+00 -4.315921564730E+00 8.701697376128E+00 2.575976058216E+01
 -7.538703783494E-01 1.268215589655E+00 -1.375752544233E+00 1.737201954771E+01 4.990532056884E+00 4.958557895471E+01
 -3.059062551881E+01 3.314761203825E+01 1.087954554651E+01 -3.406460898385E+01 -1.588027799200E+01 3.434612151931E+01 1.038111762404E+03
 2.048792224615E+00 -6.819088888091E+00 -3.449107506360E+00 -4.604776353953E+00 4.508374438403E+00 -9.303034212765E+00 2.428563832415E+02 3.911901585792E+02
 -1.290485998653E+01 7.411245882418E+00 6.476491456694E+00 -1.904934000428E+00 -5.172903222496E+00 1.147359187047E-01 6.648739484541E+01 -1.463498112203E+02 3.236873536567E+02
 -6.778321299513E+00 8.052011469615E+00 1.500748779567E+01 -7.895482336295E+00 -3.473144445473E+00 -1.236562075976E+01 -4.157146286566E+00 1.185850490911E+00 -6.017638902455E+01 2.731782180229E+02
 9.348398918730E+00 -1.791564596088E+01 -1.479812734935E+01 9.371925154695E+00 7.063040721490E+00 -8.935802888579E+00 -6.372630322027E+01 1.386655697265E+01 -3.031054343607E+01 2.403575037765E+01 8.137659240693E+01
 1.564051412491E+01 -1.610254123936E+01 -2.788281217116E+01 1.062279292162E+01 6.444662716008E+00 3.955599912632E+00 -6.605510256665E+01 5.673190214467E+00 5.230866194263E+01 -2.730819525621E+02 -2.825865773687E+01 3.563317968066E+02
 -5.701282716266E+00 3.217485280983E+00 5.205257165559E+00 -2.008511803839E+00 -1.224722473729E+00 2.945655732967E+00 4.262490987231E+01 4.289198519973E+00 4.411293458338E+00 -2.074631873494E+01 -1.284816790844E+01 -8.484460381545E+00 4.252419110804E+01
 4.855888652564E+00 -1.193725494863E+01 2.740291664303E-01 4.478884705056E+00 4.381319244344E-01 -8.145382777582E+00 -1.104772963383E+01 1.432550567884E+01 -1.323089383930E+01 -5.504281681167E+01 1.257734625948E+01 5.971466283566E+01 4.909463990794E+00 9.559112483079E+01
 -6.388392917981E+00 1.729048501991E+01 -6.184030369065E-01 -5.843855304299E+00 -1.398282497235E+00 1.676207504284E+01 5.167345016564E+01 1.297109504532E+01 -3.239017826573E-01 4.339724069192E+01 -3.469776212657E+01 -7.458424245575E+01 2.034249270808E+01 -1.185554433881E+02 2.555769287389E+02
 -1.185885617131E+01 4.834442140077E+00 1.593114089496E+01 -6.805278426677E+00 -4.250024231305E+00 5.231157431136E+00 4.912006767502E+01 9.864697768417E+00 4.104501913511E+00 2.262664474176E+01 -2.118669122181E+01 -4.020185148009E+01 -4.119818032024E+00 -1.026910549364E+01 8.309219764748E+00 1.668749895603E+02
 -4.660707155706E+00 6.065542611978E+00 3.534823537939E+00 -2.201621580460E+00 -2.114664252842E+00 9.156625486685E+00 7.631449056136E+01 2.547460191319E+00 3.218366585441E+01 8.640997466742E+00 -1.937519547463E+01 -1.295446419601E+01 -9.795934152332E+00 -2.193545460435E+01 1.331497131466E+01 8.043173722466E+01 7.676282938800E+01
 5.623568222890E+00 -4.670662123185E+00 -2.800733728635E+00 6.539410260788E+00 4.225722656295E+00 -3.572947708337E+00 -4.839346357374E+01 -5.122615728979E+00 -3.450818910482E+00 1.030745305976E+01 6.746144563179E+00 -8.563726329862E-01 -8.427486683453E+00 1.684204289217E+01 -3.468702564898E+01 2.132504708744E+01 2.142573719761E+01 4.630494924465E+01
 -1.385283490448E+01 -6.250575128677E+00 1.375180800922E+01 -9.560475950561E+00 -6.696736898789E+00 1.391802765054E+01 4.551549232661E+01 -1.589543807980E+01 2.688700562735E+01 2.430534295852E+01 -1.639071485930E+01 -2.366153915889E+01 -9.720016439881E+00 -9.583955105263E+00 5.259374267844E+00 -1.451289185756E+01 2.468573477253E+00 2.737013167507E+00 1.158855537800E+02
 -2.447738133410E+01 -3.423495108939E+00 1.161452643593E+01 -8.391810703473E+00 -1.491545026132E-01 6.235161011030E+00 4.682804402149E+01 -2.014658450928E+01 1.666037175535E+01 -4.695036417295E+00 -1.890431222057E+01 -5.808479067620E+00 6.566753856336E+00 -1.123774541765E+01 9.921144281104E+00 2.539780764767E+01 2.154858179637E+01 -8.853045492990E-02 2.027197432639E+00 6.565691279743E+01
 3.578490378707E+01 -6.422820149687E+00 7.164637171711E+00 4.905915469836E+00 -1.028867835447E+01 -1.094705543098E+01 -9.612141113031E+01 8.176624830702E+01 -4.398928906879E+01 5.394708254370E+01 3.431659461161E+01 -4.452694307432E+01 -1.407660581987E+01 8.848310384526E+00 -3.707348501209E+01 -2.430023068665E+00 -2.560774083259E+01 7.584061379909E-01 4.251831733889E+01 -9.414535374551E+01 3.600713907522E+02
 6.405158538130E-01 3.228079373339E+00 -6.119459759090E+00 1.543948988047E-01 7.190156791081E+00 -3.843805145992E+00 2.990591898877E+00 1.865749684319E+01 -2.919410121453E+01 -6.139383020738E+00 -7.849495658552E-01 4.277890311216E+00 4.862392924919E+00 -8.839077368433E+00 2.141893478216E+01 -1.888585575292E+01 -2.017160153737E+00 -3.729131088927E+00 -4.322922369593E+01 3.437174495282E+00 -3.446475545909E+01 6.594997093001E+01
 -4.065932452119E+00 -8.037953137671E+00 1.464743035048E+01 -5.518890833016E+00 -5.628325653158E+00 -3.201606251093E+00 -4.996728824896E-01 -2.442434511299E+01 2.165849698560E+01 3.248092933476E+01 6.920493129107E+00 -3.475940126853E+01 -3.769678598086E+00 1.166483205152E+01 -3.256088236081E+01 3.389540463735E+00 1.281544340833E+00 2.824930419572E+00 -3.110436485715E+00 6.183019862919E+00 -6.376895983263E+00 -2.230138171170E+01 1.229332549882E+02
 -2.947419095140E+00 5.670662531362E+00 -6.994309134682E+00 -3.130994985757E+00 -6.352043386240E+00 -8.738509928250E+00 3.570702399604E+01 2.688414257635E+01 -2.153042770412E+01 1.976294371513E+01 1.686893218649E+01 -1.812954180684E+01 -3.190649393672E+00 1.508347707365E+01 -2.898765052797E+01 -2.768784862176E+00 -2.895316482879E+00 7.074373808428E-01 -2.530836985144E+01 1.327258651862E+00 -4.153948430507E+00 -1.825716984093E+00 6.454206994896E+01 8.342890286305E+01
 -2.141927533766E+00 -1.178959321957E+01 -2.064874233052E+01 9.484768687845E+00 1.253227767341E+00 2.196145470189E+00 -9.899765567034E+00 5.059851482865E+01 -4.131694679631E+01 -1.370609877549E+01 3.799693778561E+01 -1.531075373668E+01 8.832290329041E+00 2.389410071085E+01 -1.848993159245E+01 -2.581921396420E+01 -1.060251657456E+01 1.006043921660E+01 1.204583100632E+00 -1.063764006297E+00 -1.197889910879E+01 -3.936792786828E+00 -8.651102387972E+00 9.548491089456E+00 1.983525970882E+02
 3.304571818860E+00 -1.176334589122E+00 -8.030627916857E+00 7.428488469842E+00 7.988407745299E-01 -1.800687488138E+00 -4.738449875972E+01 -3.273304633254E+00 -5.480715743207E+00 3.796513138454E+00 -7.589829658797E+00 1.296856650679E+01 -3.653825540203E-01 9.330193738963E+00 -1.152253513050E+01 -5.776563377870E+00 -1.375782379446E+00 1.207819756338E+01 -2.864218266015E+00 -9.013588631973E-01 -8.054934325911E+00 -7.476027435135E+00 -1.586180382350E+01 -2.902555484056E+00 3.962879078172E+01 4.834036764312E+01
 -3.271794049819E+00 -1.585929593448E+00 -8.194251458990E+00 7.356188414168E-02 2.555591697377E+00 -3.428156405428E+00 6.934300253868E+01 4.486566358870E+01 -2.822320801326E+01 9.442323770410E+00 4.737563043570E+00 -1.261602458351E+01 -1.927822805643E+00 -2.042650566644E+00 4.589199048061E+00 4.963627835905E-01 5.250403380028E-01 -4.625992328524E-01 -1.174699415653E+01 -4.674538791576E+00 8.955715135467E+00 1.063953759845E+01 -8.768735546590E+00 2.517235000932E+00 -3.222407440549E+01 -1.123831095873E+01 4.934827526793E+01
 -6.506098604890E+00 2.936549202012E+00 8.575016407651E+00 -1.576494237935E+01 -1.321060330488E+01 9.118584166453E+00 -3.997885230540E+01 1.174474206991E+01 -5.869384598844E+01 -2.497952732373E+01 -2.201400014747E+01 3.256574504363E+01 -1.110360355072E+01 -2.096400457489E+01 3.427113427200E+01 1.636506093062E+01 3.682912620149E+00 -1.610986195090E+01 1.177486445643E+01 9.133240153730E+00 1.803163104051E+00 2.173573797485E+00 8.977107770641E+00 5.689760508675E+00 -6.413349957440E+00 -6.773079785651E+00 -1.139520907270E+01 1.712142975383E+02
 -9.715511509337E+00 1.033710788093E+01 7.075584110497E+00 -1.461903150345E+01 -1.994438148716E+01 8.273894057695E+00 8.252811695041E+01 -5.678410841422E+01 5.204233495172E+01 1.121739465645E+01 -2.484957051518E+01 -1.967197671713E+01 -1.792490168904E+00 -2.731006574499E+01 3.193809174791E+01 1.773902297961E+01 2.173019576324E+01 -1.229593660934E+01 2.093861920806E+01 1.686817211461E+01 -2.652509432720E+01 -5.270431971969E+00 3.821276446949E+00 -6.237011793418E+00 -1.683737824864E+01 -1.071508795655E+01 -5.314638543143E+00 3.496314468784E+01 7.919157671434E+01
 -7.641510640776E+00 -1.147951624582E+00 1.617804261611E+01 -3.501555807029E+01 -1.342454323103E+01 6.672332043729E+00 -1.052377050992E+02 1.017586524410E+02 -1.666236239992E+02 -6.928869253194E+01 -4.386815882832E+01 9.283408610092E+01 -1.185489259935E+01 -7.136655579906E+00 2.766755299504E+01 3.415166001685E+01 1.823392021139E+00 -1.458836998657E+01 2.715868294274E+01 1.125855040033E+01 3.858941722868E+01 1.210585198954E+00 7.602100782163E+00 1.630804813893E+01 -1.594899336408E+01 -1.116842539433E+01 -1.182058428038E+01 2.085366376932E+02 -6.820238174116E+00 4.720267290737E+02
 1.147075150226E+01 -9.171167913130E+00 -1.083828993657E+01 1.483804226548E+01 1.085656925964E+01 -1.703761464753E+01 -1.544338709226E+02 6.489164669666E+01 7.845367730564E+00 -1.694566983104E+01 2.715328059866E+01 3.879272729903E+01 -6.038800560050E+00 9.712536702840E+00 -3.910613806583E+00 -1.467157869290E+01 -1.463784687324E+01 1.508492326895E+01 -2.515226470898E+01 -2.429333877553E+01 5.817079442070E+01 -3.056360461357E+00 -4.041882376393E+01 -2.527197259843E+01 2.875794585337E+01 1.781245060418E+01 -7.435079237429E-01 -7.155797080826E+01 -5.008688050320E+01 -3.721768905722E+01 1.856929875219E+02
 -4.401125813518E+00 3.581754328195E+00 9.299391068987E+00 -1.025862789859E+01 -6.276751112042E+00 5.749583196106E+00 6.262912630943E+01 -2.276947148761E+01 -1.319525111437E+01 3.638251563124E+00 -2.343250004861E+01 -1.677580109837E+01 1.431979584032E+01 1.513261294526E+01 -2.396769049283E+01 1.059351293792E+01 6.794693695284E+00 -1.637864429845E-01 1.131147367665E+01 1.366762952055E+01 -1.517096023447E+01 2.148794482808E+00 2.333249045690E+01 1.344605454988E+01 -2.547106077363E+01 -1.357498278566E+01 2.883331088736E+00 -7.378901995449E+00 2.842862036023E+00 5.368768216392E+01 -6.341755407817E+01 1.063613497466E+02
 -3.055473526619E+00 2.936821113700E+00 1.299183152500E+00 6.424035374524E+00 -2.528872102274E-01 -2.020845806758E+00 -1.327817473095E+01 2.673721775888E+01 3.374198152370E+01 -5.753521885947E+00 2.471186904250E+00 9.320946617656E+00 -1.271884087257E+01 -2.885370358008E+01 4.285634332348E+01 1.737484330143E+01 1.160273850472E+01 -4.958410144027E+00 -2.527199664523E+00 -5.235112395935E+00 3.009131114181E+01 -6.668602355468E+00 -2.521878661050E+01 -2.864469233995E+01 9.567416199086E+00 1.828043251628E+00 -1.322558796428E+01 4.540779181571E+01 1.620136474805E+01 1.695753772017E+01 3.920960180903E+01 -5.621761342575E+01 1.170014045493E+02
 -1.744392685899E+00 -5.553751183418E+00 -6.702266857915E+00 8.016796326087E-01 1.306509809715E+00 4.880188547847E+00 -3.754922277104E+00 -1.676464559809E+01 1.836777189031E+00 -1.584064930760E+01 -1.002801996488E+01 2.141447742585E+01 -4.960901608852E+00 -8.426065741790E+00 1.847453753792E+01 -2.198402948308E+00 4.112300766125E+00 2.904064574182E+00 2.681024944143E+00 3.757909335645E+00 -6.222608812461E+00 5.179200832549E+00 -8.639874932722E-01 4.225829460575E+00 -1.370372796599E+01 6.669935946787E+00 1.030896356322E+01 1.129118786311E+01 -1.266216209615E+00 3.360134333706E+01 -5.939576094122E+00 1.295933602345E+01 -7.634387887325E+00 6.727524263414E+01
 9.914812021086E+00 -9.671988562817E+00 -7.133319314440E+00 6.480020792949E+00 1.653724054270E+00 -1.612127272623E+01 -9.275786612112E+01 2.050863114723E+01 -5.380253259929E+01 6.464676227769E+00 2.995844245922E+01 1.150642156518E+01 -6.971752980769E+00 1.145278215100E+01 -1.232381003740E+01 -2.320564669848E+01 -2.437929041554E+01 7.452434459248E+00 -1.691920363755E+01 -1.962309634345E+01 2.739807801691E+01 1.150366548978E+00 -5.059548006885E+00 5.935239013420E+00 3.312706514314E+01 1.129247861799E+01 3.251232768971E+00 -1.537819949075E+01 -3.157443540320E+01 -3.059688988735E+01 4.152079608585E+01 -5.489362679939E+01 -8.135379975689E+00 -6.584581749364E+00 1.067533675666E+02
 -3.063980728491E+00 -1.735668177490E+00 -4.637116302661E-01 7.769832575717E-01 7.561318099101E+00 -7.143277589744E+00 4.543028340140E+01 3.347962780729E+01 1.595677630250E+00 -6.065980236164E+00 -1.471123924158E+00 5.507859151516E+00 -3.166141409270E+00 1.160481205254E-01 -1.098072972486E+00 3.107029384167E+00 7.896830441236E+00 2.644889973049E+00 1.353301361506E-01 4.340577460668E+00 -1.206341209210E+01 1.199157575121E+00 -7.607934717704E-01 3.049792111730E-01 3.375828823381E-01 -3.547202289411E+00 1.274104212538E+00 -4.325918334378E+00 3.205309492680E-01 -7.891529272237E+00 1.827024489481E-01 -7.009471212325E+00 -4.289811939741E-01 1.936513804208E-01 8.292743965560E+00 4.535024377713E+01
 -8.138629186867E+00 -3.479444411222E+00 1.059558320283E+01 -1.644131826770E+01 4.038208991115E-01 -9.145698651402E+00 -2.214854114227E+01 2.935565860349E+01 -6.720703812600E+00 1.876794381041E+01 -6.278799759831E+00 -1.368342136286E+01 -6.887428396822E-01 -5.491601797006E-02 -9.920721535057E+00 9.248867944071E+00 6.087824996622E+00 1.788422718727E-01 -6.879747968662E+00 1.077500912146E+01 -1.185584170682E+01 1.724256216813E+01 -1.650153010311E+01 -1.818659944925E+01 -8.473581076530E+00 -2.693107488308E+00 4.005857692511E+00 8.791399152113E-01 8.931927326261E+00 -5.202666411660E+00 -8.788654266735E+00 1.516051855768E+00 -1.380131344095E+00 -2.259513574744E+01 -1.302401262920E+00 7.563893702626E+00 7.532466717437E+01
 4.033003834574E+00 1.209091055996E+00 -5.788822437181E+00 3.757702073841E+00 1.457484238100E+00 -2.995317139676E+00 -4.371985346466E+01 -1.739091449432E+01 -3.807961208944E+01 1.854344947266E+01 6.639145825907E+00 -1.749171568677E+01 2.714535591369E-01 2.185682909516E+00 3.164059219278E+00 3.237309506509E+00 -2.632835378374E+00 8.054933598991E+00 -1.749102478185E+01 -1.103667810838E+00 -1.367867940171E+01 8.807985856775E+00 -8.555450452422E+00 -1.238910880366E+00 2.718392874048E+00 6.468618620195E+00 4.963468908885E+00 2.186398420053E+00 -3.944088023736E+00 -5.567226124871E+00 4.942395759649E+00 -7.252801152803E+00 -5.628106293508E+00 -1.533204906276E-02 1.042795312442E+01 -3.340140078376E+00 -3.248360082899E+00 4.534536460141E+01
 5.820245706874E+00 -4.184594562566E+00 1.107082861652E-01 2.657946455293E+00 -7.324311601839E+00 1.005083146239E+01 2.070195223301E+02 5.731796577199E+01 2.316862171383E+01 -4.905018505168E+01 1.187556094211E+00 4.294550540223E+01 4.907120977361E+00 2.404925258670E+01 -2.681276015820E+01 -2.353312072777E+01 -2.032389669436E+01 -2.525692312565E+01 2.493426800008E+01 -3.467081659292E+01 9.099452995423E+01 -9.898587806211E+00 -1.192444257701E+00 4.031941946498E+00 7.284904126297E+00 -9.313486831689E+00 1.099389117046E+01 -3.200151278740E+01 1.497222835323E+00 -6.604554311814E+01 -1.965798704381E+01 6.753252993295E+00 -1.319728094722E+01 1.656818542944E+00 -3.003066884782E+00 2.320102476893E-01 -2.401827241509E+01 -3.343063055905E+01 2.191608497814E+02
 -1.604577388277E+01 3.220215998161E+00 1.013586784715E+01 -1.101983557744E+01 -4.678207870032E+00 -4.774523355957E-01 2.251265710436E+01 -2.166181725968E+01 1.424668687650E+01 1.771553084491E+00 -2.456410380863E+00 -5.011700169680E+00 -8.290515642517E+00 -8.330752219481E+00 9.491894300494E+00 1.056867482757E+01 -8.112999009050E-01 -1.176199943571E+01 1.529766502089E+01 1.454989103379E+01 -2.909630735469E+01 -1.542730622941E+01 1.301870960922E+01 7.500521335826E+00 2.231208554827E+01 4.668049545087E+00 -2.424177708389E+01 1.138577672088E+01 6.831380693765E+00 3.243940403477E+01 1.220436668085E-01 5.875379945308E-01 1.915337321974E+01 -3.449292463564E+00 -1.074646367870E+01 -5.285554513755E+00 -1.538589285972E+01 -2.340302436511E+01 2.855114369315E+01 1.371872473878E+02
 6.626145283763E+00 1.766055873174E+00 -1.037841314098E+01 4.587222289630E+00 2.543832003730E+00 -4.593555724789E+00 -5.731579900089E+01 1.229651014197E+01 -3.933443194760E+00 7.201138289318E+00 2.685216800270E+00 1.584094095620E+00 -2.044681939439E+00 -3.732955650652E+00 9.959953129752E+00 1.862255727070E+00 -1.792235389014E+00 1.050901929989E+01 -1.193216917104E+01 -2.841858365467E+00 -1.860037273135E+00 -4.776361383616E-01 2.012785991232E+01 2.002831019879E+01 -1.436052879823E+01 -5.936761314791E-01 7.643089881626E+00 4.302579812392E+00 -6.317367404023E+00 6.174237865529E+00 1.322465893192E+01 -9.368406582623E+00 2.141871400436E+00 -1.516570534408E+00 9.778274117821E+00 6.368600951638E+00 -1.612397617172E+00 1.557726568945E+01 -5.870100780991E+01 -6.458381455092E+01 8.467315479197E+01
 2.394177655568E+00 5.911236783207E+00 2.028499281254E+00 -1.400150911724E+00 3.793178064883E-01 1.105551966425E+01 6.729793698255E+01 -3.845345836657E+01 3.885391861656E+01 -5.532378950847E+00 -1.217678227066E+01 -1.005856214527E+01 1.192712071980E+01 -8.864249274736E+00 7.591650597003E+00 7.975389834452E+00 1.344182204785E+01 -5.235684654209E+00 2.435436047840E+01 5.740475934267E+00 -4.397541188510E+00 -1.380825038182E+01 8.990089231415E+00 -2.590722160449E+00 -1.110405055319E+01 -9.826841703619E+00 -2.703885347558E+00 -3.601911011023E+00 1.124596589922E+01 4.121608069411E+00 -1.810358567907E+01 1.639365159828E+01 -8.858202058656E+00 3.015952839028E+00 -1.668242933840E+01 -7.221819948682E-01 -2.822786466916E+01 -7.800454029783E+00 -2.028005889817E+01 -1.537216474037E+01 1.319711366935E+01 6.677421968588E+01
 -5.229553083670E+00 3.249789633962E+00 5.454858587225E+00 -8.577819902866E+00 -3.841928839070E-01 -2.218699949349E+00 3.226946711511E+00 -1.149119387716E+01 2.191326158860E+01 -3.607841225008E-01 -8.575607132809E+00 3.401323906468E+00 -6.663416440497E+00 -1.012254397451E+01 2.631225299933E+00 1.710874154525E+01 1.749269157289E+01 -2.766697822583E+00 1.338890646313E-01 8.069832880659E+00 -1.056724637907E+01 5.792027938475E+00 1.862273063326E+01 9.850482173252E+00 -2.834953768652E+01 -1.372508196519E+01 -1.640700647709E+00 3.835065339444E+00 1.139452963119E+01 3.096084774864E+01 -7.542472611247E+00 1.496591133249E+01 1.049370660945E+01 -4.150853168981E+00 -2.373361960641E+01 1.370623163460E-01 5.194022187461E+00 -9.761195489421E+00 -9.732648441176E+00 2.179984406672E+01 -1.942835643555E-01 1.244502151590E+00 5.995853620012E+01
 -3.212489402317E+00 1.503790669794E+00 3.743522934862E+00 -4.345329234079E+00 -2.185162030907E+00 8.504192014562E+00 3.107389736813E+01 -3.840798211787E+01 4.775507625399E+00 -6.137533158828E+00 -1.873393317459E+01 -7.063464524619E+00 6.776120083211E+00 -4.409776313611E+00 4.264903832052E+00 4.751318005670E+00 1.059124176254E+01 -4.910316517418E+00 2.657386657680E+01 9.489522470409E+00 -4.955072570472E+00 -1.396953974600E+00 -2.582146217430E+01 -2.632755101956E+01 -7.075909718626E-01 -1.962840389265E+00 -5.019336797753E+00 2.189909821086E+01 1.453342634440E+01 2.442073470509E+01 -2.696211896242E+01 1.466044310154E+01 -4.018749083597E+00 3.021447796012E+00 -1.652228995247E+01 -3.402062749575E+00 -3.301701107236E+00 -8.852125871825E+00 -8.853148649508E+00 -1.820295733927E+00 -1.762144696520E+01 2.691631524484E+01 1.513052063827E+00 6.070688615110E+01
 1.584962646277E+00 -1.996973595111E+00 -6.131731793712E+00 2.308768773966E+00 8.312678802400E-01 3.214396175350E+00 -7.836027867043E+01 -1.039882312747E+01 6.249811473583E+00 -1.492594147803E+01 -7.004617849604E-01 2.497720194559E+01 -3.385371576957E+00 -2.355565992385E+00 7.557652669981E+00 -1.199165818088E+01 -1.055836364824E+01 -4.049252207017E+00 1.085606375516E+01 -3.815397931755E+00 5.294884793351E+00 -1.126546113532E+01 5.134438107458E+00 -7.201111008315E-01 -1.872180916044E+00 4.798397728957E+00 -6.816316451818E+00 9.784482201313E+00 3.884946701726E-01 2.734392650109E+01 3.986068461326E+00 -1.081807487542E+00 1.618947850056E+00 3.494034813466E+00 -2.428064048680E+00 -2.615995122512E+00 4.982624120084E-01 4.447126641235E+00 -1.781960127702E+01 -2.243469345843E+01 2.939132574139E+01 -7.397444952855E+00 -1.386571596301E+01 -1.931757770391E+01 6.139246516480E+01
 -3.221824620807E+00 -8.987896887944E-02 2.448162063627E+01 -1.819069727327E-01 -9.713011960642E+00 -1.060043354805E+00 -1.174651228906E+02 -2.441947670820E+02 2.055003834865E+02 -6.050885065588E+01 -1.844584066362E+01 7.282486378512E+01 -9.595068453465E+00 6.014394237404E+00 -4.674853888232E+01 9.081462291310E+00 3.140899592035E+00 -8.934345826759E+00 -7.625163895898E+00 -1.121798386697E+01 -7.693817769309E+00 -2.499018070327E+01 7.757765704039E+01 1.051354023156E+01 -1.784546331140E+02 -4.405105091717E+01 -7.352248119572E+00 -5.201694431869E+01 2.359729075232E+01 -1.308673029015E+02 -5.444033717388E+01 3.906846979530E+01 -3.869514321920E+01 -5.230566399869E+00 -4.469705753287E+01 -1.419338967840E+01 -8.768249410873E+00 -2.415087170085E+01 4.602908571325E+01 2.604692625830E+01 -1.143556931344E+01 1.801966187524E+01 4.571706487046E+01 -1.697622523642E+01 2.186726402840E+00 4.960123422732E+02
 -3.371507893505E+00 6.720524345921E+00 7.975203317879E+00 -1.561862754505E+00 -7.685268088674E-01 1.294508449046E+00 -2.860226408221E+00 -1.761374182029E+01 7.184502540357E+01 -3.806063233554E+01 -4.144851028618E+01 4.334239010608E+01 5.634358721670E+00 -1.956031376547E+01 3.248891152456E+01 2.017169181492E+01 4.054068750776E+00 -1.296442225044E+01 6.529143884575E+00 -1.694057374835E+01 3.665812849130E+01 1.099409385786E+01 -9.569130340998E+01 -7.775749487305E+01 -9.019583874822E+01 -1.923246127977E+01 1.245414049102E+01 5.423771600024E+00 1.899866968036E+01 -4.991990732000E+00 5.232204288961E+01 -3.240250314192E+01 7.662456983292E+01 -7.339377138338E+00 -4.360080820661E+01 -1.227345658938E+01 2.376890932882E+01 -5.152238219971E+00 -5.755030724963E+00 -8.435447894877E+00 -1.269929344618E+01 3.015287369771E+00 1.544312807304E+01 2.343856389848E+01 -7.233035930182E+00 6.444113159802E+01 2.540610585329E+02
 -7.417880406155E-01 1.525564996800E+01 -3.521716572665E+01 -1.825515611920E+01 -1.774890362497E+00 1.792355655987E+01 3.075703059160E+02 1.494089388679E+02 -2.049793719304E+02 6.298141648590E+01 -2.159657836142E+01 -1.031165783983E+02 2.403053395485E+01 -3.216193188290E+00 3.266935799666E+01 8.767965747367E+00 1.541205577822E+01 -8.328535257401E+00 2.464563294096E+01 2.804248695351E+01 -7.924398862856E+01 3.808975944517E+01 -7.019547529665E+01 -1.665388010434E+01 7.986150419196E+01 7.271600294268E+00 2.710992052278E+01 5.436883257228E+01 2.340961690661E+01 1.031627983656E+02 -1.022910527359E+02 5.708438224372E+01 -5.540363188228E+01 9.209431884816E-01 -1.932292704020E+01 -1.440749335377E+00 3.112513446798E+01 1.969753483145E+01 3.042702051401E+00 -2.406663446164E+01 -3.302528638027E+01 4.646899082322E+00 -3.168849059484E+01 6.410564996905E+01 -2.890076583745E+01 -3.158400767681E+02 -5.850331502088E+01 4.902090908130E+02
 -8.936995990160E-01 3.762048396546E+00 -1.111471440834E+01 1.386616692200E+01 1.488527145992E+00 4.508026762816E+00 2.648332691724E+01 -1.124889654331E+02 1.087826791634E+02 2.487256368639E+00 5.239216169821E+00 -1.090190417107E+01 6.578599721608E+00 2.698877267264E+00 -8.280885034891E+00 -2.384979413016E+01 1.477833353344E+00 4.831309625963E+00 -1.874737509254E+00 1.649705770524E+01 -7.685245753143E+01 -1.809000732929E+01 -1.276754923643E+01 -1.656548716865E+01 -2.344077485737E+00 7.723323944855E+00 -2.798987327685E+00 -9.802837578280E+01 1.178955145733E+01 -2.196884520872E+02 4.272043001287E-01 -1.766374383756E+01 -2.362151701304E+01 -1.117919952870E+01 -5.772200966226E-01 1.867527032395E+00 2.492793202122E+00 2.749690402457E+00 6.673857291618E+00 -2.603264383325E+01 3.452417448448E+00 1.216337075701E+01 -2.978845351821E+01 8.369546563309E+00 8.295375798540E+00 8.437439363615E+01 1.395359070068E+00 -4.790070403804E+01 1.746851512331E+02
 5.844453121831E+00 5.944224014780E+00 1.076608083813E-01 -7.418567314142E+00 -2.865071419841E+00 -4.026176174746E+00 -7.597508234886E+01 -9.639649852574E+01 -2.365174316038E+01 4.070739476073E+01 1.207871321790E+01 -2.121624461190E+01 -2.409115759586E+01 -1.657013111168E+01 -8.565215600966E+00 8.164267532968E+00 -5.034527161987E+00 5.166056320482E-01 2.809285881020E+01 -9.356483555575E+00 9.043579228960E+00 -2.058023479296E+01 -8.235557353028E+00 -1.343591728255E+01 -2.877958463054E+01 -5.463164636359E+00 -6.286339427450E+00 1.779508614190E+01 9.168539023745E+00 2.970696479690E+01 -7.821086968531E+00 -1.126860510403E+01 6.683276862661E+00 -4.630593275589E+00 7.598932519952E+00 -1.108950554300E+01 -9.679013358735E+00 -4.808791386037E+00 -2.408892883657E+01 5.544253660533E+01 -3.222246309083E+01 1.521020334137E+01 1.299494813348E+01 1.221451171879E+01 -1.954946118564E+01 4.283912336090E+01 3.020433397546E+01 -2.061795927568E+01 -1.272456495167E+01 1.673607740014E+02
 -2.109913479745E+01 1.312598093321E+01 -1.485138151682E+01 2.697259782167E+01 1.594880261601E+01 -1.040310813525E+01 1.341255231641E+02 -2.491711663799E+02 2.265592775495E+02 1.394780436533E+01 1.352591907196E+01 -4.951031427393E+01 3.437875997488E+01 1.525862417446E+01 -2.489467982022E+01 -1.113328365159E+01 1.938180131697E+01 8.735478175617E+00 -9.466055395370E+01 8.640365028358E+01 -3.703507561399E+02 2.655648346810E+01 3.821907814941E+00 -1.955404593153E+01 -1.142795116136E+01 1.465441897338E+01 -1.026523881927E-02 -2.567869916872E+02 4.740538922971E+00 -5.469056460787E+02 1.525521146278E+01 -3.150099891430E+01 -6.365972639335E+01 -3.847460519984E+01 8.156172030826E+00 9.792227942909E+00 1.247131331205E+01 1.196042547833E+01 -3.059193371973E+01 2.291249856916E+01 -2.414508243164E+01 1.390483789913E+01 -7.117497292526E+00 -1.854854595760E+01 -6.211051106289E+01 2.419213118736E+02 4.254380245873E+00 -1.228127325338E+02 3.155696207068E+02 1.481218637681E+01 1.065855092074E+03
 1.220796905781E+01 2.124197551927E+00 -9.645232554234E+00 3.093929655588E+00 3.172945059102E+00 4.690252705478E+00 1.001306473107E+02 6.330817492841E+01 1.841618223719E+01 -2.137766194477E+02 -1.724940669262E+01 2.506447582185E+02 -3.068360341924E-01 6.808251083453E+01 -9.525192192280E+01 -1.213265177809E+01 -1.273628205936E+01 -8.464061456018E+00 -1.803731707870E+01 -9.743122142209E+00 -1.586263736526E+01 -7.510528800255E+00 -1.769244440842E+01 1.938624211524E+00 -1.216539077555E+01 -2.216416586058E+00 3.620769836242E+00 3.698794726882E+01 -1.188718746274E+01 8.235500276615E+01 3.274003604988E+00 -3.044951329686E+00 1.434211249205E+01 -1.883627186646E+01 2.632250813428E+00 7.076575820067E+00 -1.274220268841E+01 -2.497921349492E+01 8.354696072087E+01 2.202529114176E+00 -2.014198153383E+01 -3.261212253077E+00 9.235213888189E+00 -8.676099856258E+00 1.573093847376E+00 2.970395924437E+01 3.520122755987E+01 -3.096982350183E+01 -3.327410032669E+01 -2.171997942415E+00 -6.540445606806E+01 2.880370679920E+02
 1.744386853160E+01 -1.093979395529E+01 -5.823994789367E+00 1.923398786297E+01 1.769639442579E+00 5.619766525620E+00 -2.454421242081E+02 -1.989882802416E+02 1.137284972558E+02 -6.990568541475E+01 9.025384535290E-01 7.529018898060E+01 5.668914870983E-01 2.740474709604E+00 -2.008255439495E+01 -5.583139719473E+01 -1.899901656984E+01 1.040683416466E+01 -2.712792935676E+00 -2.067644206921E+01 2.880275669880E+01 9.730514653048E-01 1.139728098186E+01 -2.250822562441E+01 2.014661954571E+01 2.510428834058E+01 -4.154781450838E+01 -5.451298041843E+01 -8.639365160284E+00 -1.089054586264E+02 -5.717830750746E+00 2.414209980433E+01 -4.582512992596E+01 2.903626425659E+01 -3.975933690953E+00 -1.979715515839E+01 -2.462565321890E+01 -8.546501484793E+00 4.486226248045E+01 -1.945529940722E+01 -1.208968659981E+01 -2.841296227530E+00 -1.595279918751E+01 6.769732279689E+00 2.819151190779E+01 1.702433434073E+02 -6.450841850198E+01 -1.499512137299E+02 9.604627384190E+01 -3.324766381252E+01 1.041263465105E+02 -1.707600260992E+01 3.571764627892E+02
 -1.190011362211E+01 4.316940402924E+00 1.283241107643E+01 -1.331362375054E+01 4.923045382144E+00 -2.931806299512E+01 -1.439105218895E+02 -1.447333496771E+01 -1.277293156925E+02 3.132391881645E+02 4.981942418237E+01 -3.530615969583E+02 -7.878288092609E+00 -6.529691286172E+01 5.254530476574E+01 4.865896305220E+01 1.470521311109E+01 2.821375123365E+01 -2.937469342617E+01 1.617547943754E+01 -5.869877728955E+00 2.134877232476E+01 2.773470099439E+01 2.387807386637E+01 2.319715773638E+01 2.014171244939E+00 1.162550291575E+01 -1.858123923870E+01 -2.413152920470E+00 -5.299600220849E+01 6.296070168704E+00 -1.976693237442E+00 -1.048969634247E+00 -2.951212908859E+01 2.164616781719E+01 -1.318405014674E+01 4.282769587100E+01 6.592163728945E+01 -1.998543913017E+02 -3.155831705653E+01 5.066210441514E+01 -1.175264813641E+01 1.681079833539E+00 -5.832270001328E+00 -9.221769346222E+00 -1.369145652765E+02 -4.844014904429E+01 9.968155893651E+01 -8.889183760667E+00 2.494452935580E+01 5.990284444014E+01 -2.965685987755E+02 -1.013208226509E+02 5.470293764809E+02