#BIOSYM hessian 1
#COMMENT: Materials Studio generated
@Type: Hessian
@Units
 distance: 	A
 energy: 	Kcal/Mol
#header
@natom 19

#label
Li      Li      Li      Li      Mn      Li      Li      Li      Li      Li      Li      Li      Li      Li      Li      Li      Li      Mn      Li      

#element
Li Li Li Li Mn Li Li Li Li Li Li Li Li Li Li Li Li Mn Li 

#matrix
57        
 3.673591080882e+001
 -2.175970902457e-001 3.718417247881e+001
 5.577249092213e+000 8.438488203730e-002 3.693376720473e+001
 5.056465112799e-001 1.962604247508e+000 -1.338477434972e+000 3.420327125377e+001
 6.322490586975e+000 -1.594284802739e+001 2.997232571617e+000 5.565536883603e+000 4.172081001904e+001
 -4.863657796414e+000 9.453778872424e+000 -4.137713565960e+000 2.387998657992e+000 4.375522066186e-002 3.613168700680e+001
 2.686633416842e-001 3.030294613087e-001 -5.493920506649e-001 -1.497142235154e+001 2.018621752561e+000 -3.964491199594e+000 3.849377523165e+001
 1.072841836742e+000 1.589156347567e+000 -5.929618736738e-001 -1.065672335631e+000 -2.217718697334e+000 1.115888934907e+000 -6.155673527539e+000 3.877796287068e+001
 -1.566613605861e+000 1.997328678832e+000 -6.108809201352e-001 -5.152229198108e+000 -2.551253215795e+000 2.378811568622e+000 -1.705475944789e-001 1.748531764687e+000 2.989385957599e+001
 1.420791122747e+000 -2.630475294480e-002 -2.000271794584e+000 1.136213141051e-001 -4.230285595530e-001 1.832144473929e-001 -3.284018707801e+000 -2.860225882843e+000 5.281071451695e-001 4.012612093998e+001
 -1.705236906358e-002 -3.305480376921e-001 1.823086214529e-001 -8.372269049826e-001 9.032266195513e-001 -8.771777828800e-001 -4.666341615454e+000 -1.174124602128e+001 2.713139068477e+000 2.929564276241e+000 2.591946322782e+001
 1.225830069184e+000 4.637272565611e-001 -3.371113484250e-001 -1.186600983481e-001 -7.112870717736e-001 2.471801073391e+000 8.813469509174e-001 3.982028087879e+000 -2.559350572512e+000 -1.805498119346e+000 -1.394398697980e+000 3.204148004367e+001
 -6.424941829690e+000 7.383726716604e-001 -6.986414015457e+000 -7.285689345720e+000 -5.066995487166e+000 1.800809931289e+000 -1.109590523116e+001 1.055313408182e+001 2.205358376283e+000 -1.485671278112e+001 -6.453588972880e+000 5.334487930338e+000 1.171961563523e+002
 1.868109737353e+001 -1.227134480857e+001 2.967293379775e+000 7.142564542129e+000 -3.824213277811e+000 -1.012095433850e+001 4.462735054873e+000 -1.405693891604e+001 4.193451069225e+000 4.520575150553e+000 8.167921163172e-001 1.650454035117e+001 2.749294766229e+001 2.067999478599e+002
 -1.238633375763e+001 -1.231866830638e+000 -1.073639508685e+001 -7.662987672502e+000 -2.413357324140e+000 -8.040561365182e+000 -3.276119343123e-001 3.129165189382e-001 -7.982931219779e+000 4.302605008564e+000 -1.592119702373e+000 -8.693881263713e+000 -1.265377898940e+001 -2.873922053977e+001 1.229699924236e+002
 -1.855394355916e+001 1.033665515342e+001 4.491314307516e+000 -1.176876742816e+001 -1.098048426462e+001 1.148290794858e+001 -8.094985895615e-001 -1.277526715459e-001 -7.461651288927e-001 -6.290619534781e+000 -4.157342071708e+000 -8.718808313081e+000 -1.525123969606e+001 -4.799201011975e+001 1.301656965354e+001 5.271086609295e+001
 -6.305365148454e+000 3.708527921850e+000 -2.374031926623e+000 -1.375210578205e+001 -1.220515841591e+001 1.178728394092e+001 2.218394090100e+000 -4.605607196983e+000 7.821852300250e+000 -5.524518769830e+000 -2.211922230406e+000 -8.985781454536e+000 -1.061560447371e+001 -5.051239654970e+001 2.764674253830e+000 2.756771846032e+001 5.733742189982e+001
 4.106388775321e+000 -4.356720296562e+000 -1.099430319610e+000 5.514916062282e+000 7.742276751187e+000 -9.718817055818e+000 3.506245446991e-002 1.526268334330e+000 -1.016316260455e+001 -4.431207410567e+000 -9.303563873617e-001 -5.778623361525e+000 1.132480783551e+000 -3.439514223195e+000 -7.025436752350e+000 -1.202978684191e+001 -3.147767294626e+000 3.665035954358e+001
 -6.834482060380e-001 1.461386523619e+000 9.012845323052e-001 -1.200695709304e+000 -6.636604281093e-001 -3.026252261911e-001 -3.443520154046e-001 -3.482219241942e-001 9.861465703039e-001 1.972699302781e-001 7.547762936902e-001 2.105232786046e-001 -1.658452001818e+000 -6.772110851737e-001 -7.647223907479e-001 1.716144540102e+000 6.094963607316e-001 4.495098348868e-001 4.308982045932e+001
 1.393085449786e+000 1.150790182768e+000 9.939151852995e-001 1.538907959583e+000 -3.958381385968e-001 7.811265110958e-001 -1.046922976532e+000 -5.721411060883e-001 2.032686185476e-001 1.908062248524e+000 7.742848369837e-002 2.771833164889e-001 -1.754157052422e+000 5.703764379298e+000 3.993869814798e-001 -1.330546052766e+000 -1.518973804392e+000 -1.261828285407e+000 -2.194552688525e+000 3.181555117740e+001
 -1.603842468116e+000 1.594603995274e+000 2.115612855577e+000 -9.861884861573e-001 3.625412535612e-001 6.665817648580e-001 -1.020579767394e+000 6.779005161320e-001 5.199585403173e-002 1.727164638159e-002 -4.418125087515e-001 -8.993149178769e-001 9.590541483864e-001 -6.118451402936e+000 1.608488734322e+000 2.309409362738e+000 2.200748034931e+000 8.667792707660e-001 -6.335980330494e-002 -9.874932705135e-001 2.549724516566e+001
 -2.352265133374e-001 -2.307647129842e+000 -1.036631188432e+000 4.741572078926e-001 1.815413580478e+000 -3.271369063121e-001 7.007330040992e-001 8.123106247599e-002 -3.154234395457e+000 -3.864387979657e-001 -9.124947918886e-002 -6.117686867863e-001 -2.347524303423e+000 -3.042317570702e+000 3.860282901804e+000 -2.894061760852e-001 -2.329546934996e+000 1.357891333772e+000 -9.519591720602e+000 -8.601870101445e+000 -1.483356007816e+000 3.353840368450e+001
 -4.056435788448e-001 4.900814344929e-001 -4.899890286335e-001 1.565265331028e+000 1.438602663657e+000 6.631832197955e-002 1.038742076931e+000 -5.986485714592e-001 -1.447099098143e-001 -8.891081916255e-001 -6.507688249938e-001 -3.371678879470e+000 -2.344253591201e+000 -1.840863337500e+000 8.617462135897e-001 -7.266975774713e-001 -2.146912819676e+000 1.251633015426e+000 -7.019620965852e+000 -6.957721821049e+000 -1.236914378037e+000 -8.880950248001e-001 4.308822839405e+001
 -2.084467721607e+000 4.181397302629e-001 -1.958697884077e+000 -2.067444722316e+000 -3.014218989085e+000 3.563114737568e+000 1.620375570209e-001 4.698772271192e-001 1.239192770520e+000 2.707598123632e+000 2.282610249339e-001 1.671437288273e+000 1.027285309038e+000 5.604410664298e+000 -3.488075212712e+000 2.854441929319e+000 4.276411132216e+000 -3.546807306246e+000 -1.033968660988e+000 -1.071437915814e+000 -1.129089040294e+000 -3.718244531329e+000 3.016737707893e+000 3.354248315030e+001
 2.904344230901e+000 1.006792838978e-001 -1.323939566662e+000 1.702494333639e+000 -1.401768465560e+000 -9.551885868868e-001 7.066389487057e-001 -1.364606326326e+000 2.014741191025e+000 -1.352591322960e+000 1.208660898267e-001 -6.920065831641e-002 2.190264463052e+000 9.583637855107e+000 -1.809019460938e-001 -8.900711767488e+000 -3.148914782034e+000 1.421129578094e+000 -4.604573296906e-001 -1.345285659346e-001 -2.406272443909e+000 -6.023122427686e+000 4.674875610366e+000 -3.944340071026e+000 3.616490351002e+001
 3.239439773368e+000 1.255757543891e-001 -9.854114051651e-001 1.026244820369e+000 -7.261404391591e-001 8.900416936788e-001 -2.500032438345e+000 7.348744697197e-001 -8.677443104752e-001 9.934954213870e-003 1.287885850862e+000 1.290532121681e+000 1.601274801394e+000 1.006359808281e+001 -9.507322170168e-001 -3.785020507445e+000 -2.275504674331e+000 9.684929041562e-001 -6.139253263847e-001 -9.396748753809e-002 -6.785843389349e-001 6.862882429038e+000 -2.787522701664e+000 3.661957441406e+000 5.722803429442e+000 3.258927970167e+001
 -2.082767738548e+000 1.168404484619e+000 -9.559190106025e-001 -1.802042292184e+000 -1.842467827964e+000 2.452865949376e+000 -2.400364099738e-002 -1.109840812088e+000 -7.201999117747e-003 -6.596560762616e-001 1.110586610227e-001 1.079485498944e+000 1.145275104596e+000 -1.196374479416e+000 -1.950733130040e+000 4.093997072929e+000 2.944635257804e+000 -8.069851645569e-001 2.171685535527e+000 -7.869810820801e-001 7.578031390601e-001 -4.030193160802e+000 1.699194955606e+000 -1.303072727795e+000 5.985316853234e+000 3.320512879362e+000 2.958856211445e+001
 1.406282774562e+000 1.593994416752e+000 -9.541872719608e-001 -3.132691940301e+000 -1.567831238740e+000 1.321484490800e+000 1.555650576021e-001 -9.628317616759e-001 1.597187831673e-001 1.837685773521e-001 6.375044912770e-001 3.349200946307e+000 4.695999869937e+000 -1.937268531849e+000 -1.822005131164e-001 1.831485224212e+000 4.911797886368e+000 -1.463396870576e+000 9.996324850176e-002 5.419375497335e-001 -1.169771446428e+000 -3.369455988185e-001 5.987789765377e-001 1.536629022885e+000 -2.068032715543e+000 -6.164549571798e+000 1.262920877585e+000 3.318686052757e+001
 -1.678960103179e+000 5.156514906807e-001 1.051968599237e+000 -9.747816984392e-001 5.172347995715e-001 -7.052988471199e-001 1.139809206290e+000 -5.192130420140e-001 -1.523250347228e-001 -1.998500140395e+000 -2.104829762428e+000 -3.920463631289e-001 -1.411736757952e+000 1.154856755129e+000 -6.761604392046e-001 2.551953634029e+000 -3.908393225248e-001 1.299720177863e+000 -4.605432502751e-001 -4.340275632890e-001 1.598960729862e+000 1.168121451859e+000 6.788635586378e-001 1.266543194791e+000 -6.189197434264e+000 -1.226886236170e+001 1.689442168602e+000 -2.097834886275e+000 3.323538571707e+001
 -7.454261117337e-001 1.357173621805e+000 -2.532708142008e+000 2.670814338546e-001 -1.628172761976e+000 -1.610991294266e-001 -2.179464637974e+000 1.929797232957e+000 -2.327992019572e-003 -1.862189038726e-001 -8.513585621487e-001 -7.931380776656e-001 1.582701537132e+000 7.906677266548e-002 3.036182189347e+000 2.397402223507e+000 -1.166752166854e-001 8.159789116497e-001 3.623764304056e-001 1.083623269330e-001 8.258699368635e-001 -3.209475968122e-001 -2.131187170840e+000 1.692709941690e+000 -2.075726189299e+000 5.461275058518e-001 -1.274370981812e+000 2.957636988745e+000 -4.830960174005e+000 4.082029589973e+001
 8.785178770730e-001 2.718281216472e-001 1.821960268504e+000 1.394083772567e+000 6.076740838455e-002 9.672659488531e-002 -1.283758617213e+000 2.373017615482e+000 -1.017210000109e-001 1.172845827816e+000 -8.998054432524e-001 -5.263733582653e-001 -1.041646414124e+000 8.001508917898e+000 -3.783177329635e+000 -1.027560691264e+000 -3.835943154613e+000 5.837880623615e-001 -1.552884583899e+000 3.964172720292e+000 -1.645347707531e+000 3.707935252224e-001 3.031513440749e-003 -9.021501190277e-001 9.110369938143e-001 3.120073450160e-002 7.177258214472e-001 -1.252049381274e+001 1.279634354026e-001 -3.474415780265e+000 3.575880331390e+001
 1.052741743624e+000 -4.540208606885e-001 1.178990038228e+000 -1.341970864434e+000 -6.620141492200e-001 -1.976383656593e+000 1.571496395079e+000 7.541447378790e-001 -2.354494234166e+000 -3.258218117075e-001 -1.630780750004e+000 -1.020525685672e+000 -2.667456287370e+000 -4.865962748593e+000 1.114687135198e+000 -5.432423940513e-001 1.124275213829e+000 4.140151876845e+000 9.976046922253e-001 -1.164437901203e+001 3.490695849353e+000 1.135986010909e+000 2.310117634112e+000 -6.764942704111e-001 1.100161710573e-001 5.111420400937e-003 -2.770737200417e-001 -9.907552450454e-001 5.484780198853e-001 -1.920740516133e+000 5.616130921348e+000 3.634337661620e+001
 2.231228446110e+000 -8.715749591054e-001 -2.348531020193e+000 1.674007794579e+000 2.646985525657e+000 -4.965197137560e-001 -8.990606777463e-001 -6.057491551577e-001 -7.487569338115e-001 3.618460736514e-001 1.175824142349e+000 -7.189637837209e-002 -1.879218874431e+000 2.168891332537e+000 1.714512892833e+000 -3.905005148851e+000 -2.936556022036e+000 1.044309575968e-001 1.244200713728e-001 3.892346284554e+000 -2.553188386962e+000 -6.625358097499e-001 -4.102380245097e-001 8.232150727128e-001 -5.015500579662e-001 4.165807405800e-001 -3.180838518582e-001 -7.330313280573e+000 -3.059479511971e-002 -4.396779726078e+000 -1.483701734598e+000 -2.581404251796e+000 2.973245367229e+001
 4.199707675503e-001 -3.386221822850e-001 -3.876783652342e+000 8.700853449186e-001 1.318440361734e+000 7.738084272571e-001 -1.802444918983e+000 1.882866517810e-001 -7.294895991001e-001 -7.423386903697e-001 2.550178762748e-001 1.610331989457e+000 -6.167911837105e+000 8.359297753949e+000 -1.274128032807e-001 -3.669494830057e-002 -9.873891290546e-001 6.014132289540e-001 -5.671482144062e+000 -2.035412002170e-001 7.409781119280e+000 -2.029402855102e+000 -7.994114143241e-001 2.154203649315e-001 -7.275647743866e-001 1.730689935306e+000 -1.029282564695e+000 -2.166087917786e+000 -1.477263164727e-001 -8.667288109485e-001 2.602876434075e+000 -3.690070085392e+000 8.544254017354e-001 4.216539232707e+001
 2.514107453513e+000 -1.006734421286e+001 -6.226119361990e+000 -8.131563856669e-002 4.307504788267e-001 2.486261443812e-001 7.357918773090e-001 -3.469157842144e-001 9.906576819606e-001 1.649865607523e+000 1.005416632480e+000 6.369871876235e-001 9.793712783566e+000 -9.803236565628e+000 1.800607736749e-001 -1.848543539013e+000 9.191537795101e-002 -7.047322912090e-001 -2.912352707277e+000 -2.063490533320e+000 1.875292302450e+000 -1.731112961462e-001 -1.586751014171e+000 -4.482498899475e+000 -1.160770647784e+000 7.010830673579e-001 2.381062493876e-001 1.150027970846e+000 -2.561052236884e+000 5.557056429091e-001 8.948131088917e-002 -5.938396023632e-001 -1.298862616497e-002 -5.525301143972e+000 4.206114495691e+001
 7.677291864786e-001 -9.083530108213e+000 -5.001099058204e+000 1.073139238857e+000 1.718172642169e-001 -7.331814995154e-001 2.359398596425e+000 9.067592148624e-002 6.285974235637e-002 5.939675176865e-003 -8.583998887640e-001 8.850013505568e-001 -3.415137215648e+000 7.961866140402e-001 -6.711687299999e+000 -6.881433377897e-001 -1.113008640748e+000 -5.841972402515e-001 6.974587273827e+000 1.478010108590e+000 -8.544987137963e+000 7.513540961883e-001 -5.516607108787e+000 -1.265860678673e+001 -2.105275148765e+000 -4.666099790797e-001 -1.310804832358e+000 -1.251893154513e+000 -4.966456811808e-001 -2.494091216842e-001 2.630087466431e-001 -9.433555066542e-001 -1.983316001559e+000 -3.943601762950e+000 2.289736596659e+000 5.170062655802e+001
 1.565975672596e+000 9.791773143679e-001 4.416623545756e-001 2.136713568418e-001 6.935348017982e-001 1.389261186757e+000 5.634901877068e-001 5.269247447854e-001 2.999209220257e+000 -4.628023982659e+000 5.396799855960e+000 5.404060908173e+000 -1.846064482020e+000 -9.483261031253e-001 -8.711178819544e+000 -2.385397697317e+000 2.798264699352e-001 -8.405184198072e-001 6.657447989864e-002 -1.548490777248e+000 -7.281705477309e-001 -1.064384488876e+001 3.135477362558e+000 6.510270798649e+000 1.845938082296e+000 4.661256358277e-001 1.038386058650e+000 1.790100393509e+000 5.667173166141e-001 6.964804371404e-001 -7.547573267432e-001 -1.899875655310e+000 1.182415878691e-001 -1.047632872736e+001 1.293977130137e+000 -4.432186238347e+000 4.074275300206e+001
 -5.830895577661e-001 1.308850898848e+000 -2.419714432725e+000 8.112131982128e-001 -8.194725681383e-001 1.864339853101e+000 -4.630843020948e-001 1.423308436450e+000 1.239983957687e+000 5.732502682684e+000 -6.279157231380e+000 -2.798771182714e+000 -4.184156784185e+000 -1.327295117829e+001 -4.926135567375e+000 2.490937854888e-001 3.940708207111e-001 -3.850946991243e+000 -5.342808308281e-001 1.285877348233e+000 1.048529823429e+000 5.146244663393e+000 -2.977185478823e+000 -1.749599215522e+000 -2.594009771370e+000 -3.413444094663e-001 7.996697202349e-001 1.098405789527e-001 -7.981263839778e-001 -3.272552487448e-001 -1.800452643185e-001 -1.688065436404e+000 -1.805075172148e+000 6.551997302586e-001 -1.187738744203e-001 -1.104742280817e+000 2.593897465110e+000 4.679833195902e+001
 -6.142952917202e-001 -6.608505326477e-001 1.044508651418e+000 -1.133158008345e+000 4.144857063309e-001 -2.066955518496e+000 -5.668425037953e-001 1.886675027825e-001 4.006047484816e-001 2.016407421590e+000 -5.537776208056e+000 -6.681857831881e+000 2.960374623824e+000 -4.947136770465e+000 -2.885820151580e+000 7.398752931374e-001 -7.695607220869e-001 1.135877919801e+000 -1.058825984483e-002 1.713618009751e+000 1.815712425486e-001 5.500408124304e+000 -2.958100623013e+000 -6.726392758745e+000 8.833127298607e-001 -6.035705598132e-001 -1.122355406752e+001 1.396760849716e+000 1.828267587277e+000 1.044432075545e+000 -1.439389031399e+000 1.357295790638e+000 3.983656403887e-001 -5.063956388144e+000 -2.015409976954e+000 -9.538798783851e-001 -6.099698145611e+000 6.070403339872e+000 4.928803252838e+001
 -5.997235437523e-001 -5.390567111007e-001 1.101208208599e+000 1.494522445176e+000 -1.053120618078e-001 4.441114875055e-001 -2.106668937399e+000 3.185654427905e-001 2.438683247172e-002 -1.322568810464e+000 -1.214252482880e+000 3.102070019632e+000 -1.320770336832e+001 -3.891548097686e+000 -6.086705312338e+000 1.895853490100e+000 1.986152468124e+000 1.252262969796e+000 2.832615755617e+000 9.393725951198e-002 1.119806129794e+000 -5.550727827199e-001 9.950737185921e-002 -5.020889051831e-001 -1.322593828922e+000 7.307969467528e-001 1.275705312906e-001 -5.960998616599e+000 3.697924457272e-001 5.857125528437e+000 9.014851392537e-001 -5.452025584557e-001 -7.285967028941e-001 -1.786582727637e-001 2.929574512045e-001 -1.355238757505e+000 -2.153806771460e+000 1.427341215555e+000 -9.254471274879e-001 4.298485791310e+001
 -1.710407684349e+000 -3.123178047359e+000 4.445872278250e-001 -9.756533488147e-001 1.768246535994e+000 -5.032850602037e+000 1.008152054786e+000 -9.531300030897e+000 -1.015010717038e+001 -2.639251449418e+000 -3.628653402849e-001 1.707428043782e+000 1.245988816462e+000 -7.562668520193e+000 3.745417442807e+000 4.916110761748e-001 -1.033765216294e+000 1.508450167659e+000 1.593382863450e+000 -6.981326128857e-001 -1.991755875147e-001 9.665605887838e-001 -2.331076018748e-002 -2.507005801034e+000 4.858131050173e+000 -1.003195580880e+001 -4.734446169524e+000 -2.260851235208e+000 1.268575314337e+000 2.080290898635e+000 -1.306274723064e-001 1.466080687312e+000 -1.126055151987e+000 -1.596179681889e+000 7.188483711799e-002 2.934766607021e+000 1.957899393341e+000 -1.271899317546e+001 5.671642063017e+000 -2.185220513803e+000 4.049432913034e+001
 1.522837067254e-001 -5.484495900599e-001 7.602114831626e-001 7.887649182108e-002 -1.108716368221e+000 -3.059268658750e+000 -1.201795170466e+000 -9.083176611659e+000 -7.336401749475e+000 2.988989045259e+000 2.660275785329e+000 -1.106153834170e+001 -6.665774892301e+000 5.221924683654e+000 -1.064159267896e+001 -3.048460061323e+000 -8.033561007757e-001 -1.103137312050e+000 -7.852949859501e-001 2.432292484465e-001 -7.195299258102e-001 1.519128506101e+000 2.107464517217e+000 -3.734376361885e-001 1.986870029414e+000 -6.411264420879e+000 -2.311934960040e+000 5.653846804837e+000 2.842263964687e+000 -1.075423409036e+001 1.765103619881e+000 -1.717589486700e-001 4.040704442519e-001 3.648400699841e-001 -1.183697240263e+000 -6.476132594637e-002 -2.092059507951e+000 5.285960919906e+000 -1.941894661208e+000 2.690010534183e-001 6.165267833244e+000 4.992440780366e+001
 1.395230005889e+000 1.409083957902e+000 -4.862953873121e-002 2.049154683374e+000 -1.575579059891e+000 -2.308594513045e+000 -1.021282903935e+001 -1.484560365261e+000 7.039202471302e+000 -1.008079933785e+000 1.060057573292e+000 7.534631720632e-001 -1.276820543965e+000 4.723560673880e+000 4.150087570071e+000 -1.831859183453e+000 -1.034177360634e+000 -1.634076554548e+000 4.390518927472e-001 2.497660818802e+000 -8.947385476199e-002 -2.378589401121e+000 -1.625424569125e+000 -6.958638816633e-001 1.455880669163e+000 2.274184140573e+000 1.509128150387e+000 2.121294222254e-001 -2.713989856503e+000 -1.202335487405e+000 -9.020575943991e+000 4.831601467888e+000 7.678635763053e+000 1.025877883972e+000 -9.715646233979e-001 -9.844996317261e-001 2.713318166113e-001 -9.387857528363e-001 -5.004651535512e-001 -8.712912194762e+000 -8.228904221384e+000 -1.581039601554e+000 3.702282335017e+001
 -1.027224074777e+000 5.628258039768e-001 -5.686659498358e-001 -3.434039944013e-001 -2.064045831559e+000 -4.119483925112e+000 4.106664804883e+000 -7.661917671806e-001 -2.015197666955e+000 -1.587530576946e-001 -4.466774524395e-001 1.070442559566e+000 -2.658761196667e+000 -1.341099120794e+001 7.114390072350e+000 -1.389824396326e+000 -3.001132398163e-001 8.281557276147e-001 -1.947149178024e+000 1.223511554260e-002 -1.839699244768e-001 1.497590798475e+000 -1.105237217774e-001 1.421506737446e+000 -3.940157543192e-001 1.193722043344e+000 -1.387591792972e+000 2.366895052716e-001 -4.582086860283e+000 -4.479775452776e+000 3.177089585068e+000 -2.856019713525e+000 -3.164698974241e+000 2.970293571549e-001 -3.453742126769e-003 -1.045581984900e-003 1.032732953654e+000 2.074993007475e+000 9.408742235476e-001 -3.696462154556e+000 -4.455054608231e+000 -1.022907736148e+000 -2.029372084484e+000 4.198440502688e+001
 1.070176547715e+000 8.236348395945e-001 4.161897066827e+000 -3.107731377394e+000 8.825233155203e-001 -1.401454261504e+001 9.890374963275e+000 -1.284160690069e+000 -6.318420037689e+000 1.877480658071e+000 1.027397053368e+000 2.168300782654e-002 -1.618833720563e+000 1.661260012764e+000 -9.564695058023e+000 -2.014908516961e-001 1.993734684626e-001 -1.064878864418e+000 1.863521566591e+000 -3.023352385480e-001 -2.126023050238e+000 -1.287966636311e+000 8.892062437906e-002 -5.557182021732e-003 6.719774498174e-001 -7.266423909473e-001 8.375385293857e-001 -4.554768860252e-001 -6.527138048267e+000 -1.130906383304e+001 5.513193010485e+000 -3.200511785627e+000 -2.509188489434e+000 -3.922725469100e-001 -1.288975741820e+000 1.677158327282e+000 -1.014700726662e-001 -1.404748530729e+000 -9.514367168325e-001 -2.436989802420e+000 7.312900143372e-001 1.330393117646e+000 -9.916732135256e+000 6.399956557852e+000 5.044905138105e+001
 -1.675613316824e+000 -9.225086081023e-001 1.288276571529e+000 -3.303919524149e+000 7.328942842645e-001 3.296155340279e+000 -9.480325683533e-001 2.883586449426e+000 2.421568735549e-001 1.536442164390e+000 1.268118172062e+000 2.289813090556e+000 -1.219995947987e+001 6.228568622541e+000 -3.075715960127e+000 -2.665649906653e+000 -9.749756780358e-001 -1.062972152520e+000 2.455384869461e-001 2.934416351685e+000 2.470879877638e+000 -3.929332725436e-001 2.982657732789e-002 2.316197514635e+000 -3.324077679591e+000 6.821608458505e-001 7.086045244087e-001 -9.338008905580e-001 6.928230846018e-001 7.559616698624e-001 6.666840837910e-001 -6.340965301161e-001 -4.240179192085e-002 -2.301318301477e+000 -5.279327326663e+000 -4.466137002493e-001 8.116617358556e-001 1.753560632940e+000 8.220345360732e-001 5.297396032772e-001 -4.055806619919e+000 -1.243887592922e+000 -6.465079286316e+000 3.254873172260e+000 -2.372774192596e+000 4.442968993899e+001
 -4.017258759231e+000 -7.615247201752e-001 2.322327958890e+000 6.897725377711e+000 -6.376276386759e+000 -4.627749974461e+000 -9.141270317964e-001 8.525381341923e-001 4.010777594159e-001 -5.279518200701e-001 1.925093555438e-001 1.235942797369e+000 -6.990478965528e+000 -1.540791077674e-001 -2.600412697798e+000 2.158802546976e+000 7.019687609467e-001 -2.000050187029e+000 1.613888013207e+000 -6.760970578490e+000 -6.228688410771e+000 -2.250452867756e+000 4.772408196373e-002 -7.256147456099e-001 -6.529106123210e-001 -1.596818676424e+000 1.565694062458e+000 -2.452741345934e-001 1.761634092561e+000 1.387169016520e+000 6.998880930132e-002 -4.239332821838e-001 2.015597314569e+000 -4.619022035678e+000 -9.392982052641e+000 3.212478915890e+000 -1.600005726336e-001 -1.777451571989e-001 -2.407242755147e+000 1.506301596271e+000 -1.840106965049e+000 4.926173201070e-001 3.769626177475e+000 -1.836209437221e+000 2.998915051726e+000 5.435282411370e+000 3.417409050921e+001
 5.784547616894e+000 2.481197559998e+000 -1.280579360171e+001 5.836047249111e+000 -3.938959212404e+000 -4.037104500512e+000 -3.046764751809e-001 1.199668417326e+000 8.185173822971e-001 2.101730887121e+000 1.844516872968e-001 7.049106380330e-001 1.857829620585e+000 4.719355718143e+000 -7.875600932664e+000 -1.847925698571e+000 -1.801820058468e+000 8.537314197616e-001 -5.887203304186e-001 -4.137607571742e+000 -3.704523147359e+000 -8.022710353270e-001 -1.270867025347e+000 -7.128113726807e-001 -1.905596814837e-001 8.258561546071e-002 1.100848733966e+000 6.302825204726e-001 2.021150810080e-001 2.068483216542e+000 -3.345137458481e+000 -2.458815833087e-001 -1.003166884383e+001 2.507962715718e+000 4.307441495915e+000 6.164215648036e-002 7.684710805777e-001 2.873144889393e+000 -1.658591054266e+000 -2.449302830353e+000 -2.689697771871e+000 -1.311957309301e+000 -2.787733174431e+000 1.357914607276e+000 -4.806847585095e+000 4.105739409923e-001 5.067791772272e+000 4.947489066328e+001
 -6.519198055067e+000 4.028350583344e+000 -5.949740435993e-001 -3.935487213440e+000 -4.708677115928e+000 8.382052822906e+000 -1.067656042089e+000 1.646823822897e+000 2.352933437534e+000 -1.101983388893e-001 -2.127876245611e+000 1.247865834600e+000 7.173314093521e+000 6.134250860316e+000 -9.342160053330e+000 1.497584577108e+001 7.409607244538e+000 -7.778683737996e+000 -3.270019631657e+000 7.443489572371e-001 -4.399828978784e+000 -6.534634512676e+000 -6.027652364424e+000 9.642897736810e+000 -1.990708644235e+001 -1.343985262725e+000 5.838811335814e+000 -2.593527734503e+000 4.923278830113e+000 6.338533521019e+000 -1.399017280854e+000 -8.357840993460e+000 -3.617222620290e+000 2.023417776662e+000 1.066290331903e+000 -2.185903910144e+000 3.976283411242e+000 5.741402373627e+000 2.077691532123e+000 1.696441491239e+000 -4.195501871127e+000 -9.937477501554e-001 -6.328920774749e-001 -1.326774692905e+000 -9.039559449645e-001 6.538907169992e+000 2.613105921976e+000 3.481962109022e-001 5.369675626592e+001
 -2.637923111345e+000 4.580304586174e+000 -1.350572909978e+000 -6.422640698736e+000 -8.877938158538e+000 1.232579285386e+001 -2.527731440348e+000 1.104680628667e+000 7.547642307807e+000 4.162649320765e+000 1.695745175637e+000 7.657322245738e+000 1.018794338103e+001 2.640638839270e+001 -2.025074383759e+001 1.212164053944e+001 1.358511263141e+001 -1.437215212191e+001 2.318951227829e+000 3.394744700504e-001 1.525727727060e+000 -9.877048585244e+000 -1.080323780988e+001 1.957479977023e+001 -4.592875224043e+000 1.255763030175e+000 4.289277756889e+000 1.411171097950e+001 -1.192953895407e+001 1.257626488918e+000 -3.931740509928e+000 -1.603725300173e+001 -1.085200694640e+001 2.859896872031e+000 3.708720746024e+000 -2.398404557273e+000 3.385477302199e+000 7.545435328438e+000 -2.881122813426e+000 -2.201163636262e-001 -6.440929755948e+000 -1.471301069587e+000 1.819861098803e+000 -1.221727125566e+000 -1.946052643903e+000 5.430036824198e+000 3.487086085233e+000 3.131104537473e+000 2.895456286216e+001 8.744086938357e+001
 3.296924409261e+000 -4.658906737026e-001 1.122704702303e+000 3.882630302328e-001 9.354263503925e-001 -1.206708059026e+000 -1.211025985543e-001 2.135993407727e-001 -4.224032703573e-001 -1.547339280436e+000 -5.789387536973e-001 -1.330196695796e+000 2.858396835329e+000 -1.566217602382e+000 3.251061470375e+000 -5.078500655337e+000 -4.302773843373e+000 1.345591162603e+000 -5.094154728254e+000 6.929961114353e-001 -7.658704631410e+000 3.449483393877e+000 6.360946483466e+000 -9.269980030757e+000 4.292673692862e+000 1.059560310105e+000 -1.908914367875e+000 1.106008876400e+000 -1.606682034008e+000 -9.630880962941e-001 -1.443779817794e+000 -3.087378479895e+000 -4.097751341426e+000 -4.038594292034e-001 -2.412154917785e+000 2.771016938690e-001 -9.154187563425e-001 -1.024162108248e+000 1.503335882376e+000 -2.061230916505e+000 1.177243651947e+000 -9.537179804261e-002 -5.377838538557e-001 1.794855842521e+000 3.347089222143e-001 8.952734138042e-001 -7.703112331021e-001 7.563095379786e-001 -1.017012067448e+001 -8.205533448226e+000 3.681112151113e+001
 -2.397828460690e+000 -8.915929233651e+000 1.569472214300e+000 7.163671407966e-001 7.703764031337e+000 -1.720205022334e+001 5.905762906266e+000 -5.408774438466e+000 -7.984753316099e+000 -2.444088026247e+000 1.684074802809e+000 -7.782064645350e+000 -3.289077920381e+001 -4.516622497637e+001 3.735302974084e+001 -2.689531767662e-001 1.371043460319e+000 1.183276604546e+001 -2.345560357736e+001 2.529638264817e+000 1.054206887454e+000 5.301109471752e+000 1.004515236441e+001 -1.185141498857e+001 -4.337542110602e+000 -9.202359556571e+000 -1.395478001939e+001 -1.209844942847e+001 7.000719409153e+000 -1.015136327558e+001 -1.475556881453e+001 4.984980703435e+000 7.435427729295e+000 -5.566145237357e+000 -5.444617912574e-001 2.032713833834e+000 -1.868471998028e+001 -1.275268005847e+001 2.788706135451e+000 -1.637661181360e+001 1.491597661578e+001 3.800039657662e+000 -2.661088289329e+000 1.197876378323e+000 2.565174215415e+000 -2.131864744615e+001 -5.214284991990e+000 -8.199646628288e+000 -4.257370335659e+001 -5.427669481971e+001 1.083692377071e+001 1.846554983365e+002
 -7.960376264280e+000 -1.863513023054e+000 2.062884578427e+000 -9.228751876296e-001 5.781428625661e+000 -1.109756161723e+001 1.090847858033e-002 -1.324918352448e+000 -1.001864633779e+001 -9.894408540060e+000 -1.774802233989e+000 -1.846362779903e+001 -1.721606136213e+001 -1.116130580562e+002 3.607750781603e+001 1.559906477820e+001 1.369696396924e+001 1.531310024342e+001 7.470947252491e+000 -7.467839331146e+000 2.477687398869e+000 9.491310333453e+000 -1.724443327707e+001 -2.591939137960e+001 -4.355877923511e+000 -1.691699467276e+001 -7.092067238514e+000 -6.312452428639e+000 -3.981224003343e+000 7.244524840267e+000 -1.488757741221e+001 -2.001598907424e+000 1.277220862219e+001 4.003732987920e-001 -1.155948830897e+001 1.324132144892e+001 -1.439023839435e+001 -1.997071262965e+001 8.271850657195e+000 4.665172278140e+000 1.119478373956e+001 -3.346635291124e+000 -5.059066417317e-001 -1.377863461574e+001 5.651393576716e-001 -1.677752765453e+001 -1.198890231943e+001 -1.131135872843e+001 -3.467036142888e+001 -9.294581149880e+001 1.128957599510e+001 8.732520492669e+001 2.810484633516e+002