#BIOSYM hessian 1
@Type: Hessian Update
@Units
 distance: 	A
 energy: 	Kcal/Mol
#header
@natom 10

#label
L1      L2      L3      L4      L5      L6      L7      L8      L9      L10

#element
Li Li Li Li Li Li Li Li Li Li

#matrix
30
 2.221183131224E+03
 -2.878447244058E+01 2.199079388010E+03
 9.743589392857E+00 1.396167334576E+01 2.236314752128E+03
 -1.110573737627E+01 -1.563896582717E+01 5.024429098718E+00 2.235618218102E+03
 6.160548420947E+01 8.854344750845E+01 -2.914633033163E+01 3.207885168727E+01 2.055131093336E+03
 3.233020248234E+00 4.328360715382E+00 -1.287589053277E+00 1.143744759116E+00 -8.352301896466E+00 2.240760180618E+03
 8.284152090670E+00 1.221891590879E+01 -4.165509910784E+00 4.839146018287E+00 -2.634867965339E+01 -1.466443577754E+00 2.237382693114E+03
 -1.140242524168E+01 -1.632479271219E+01 5.323256954271E+00 -5.841046692558E+00 3.407515818816E+01 1.482354207350E+00 4.887040632107E+00 2.234612909568E+03
 -2.796219927324E+01 -3.974496180545E+01 1.287496097850E+01 -1.381604150190E+01 8.233463906682E+01 3.304588317852E+00 1.207133675130E+01 -1.503043298910E+01 2.204896267029E+03
 -5.567524971307E+00 -7.782201247173E+00 2.435828157682E+00 -2.541470269344E+00 1.579411508284E+01 5.205031646366E-01 2.430347599942E+00 -2.851262361902E+00 -6.730735374109E+00 2.239645719327E+03
 -7.039987887588E-01 -9.533211331783E-01 3.018669244527E-01 -2.610745027879E-01 1.877576566695E+00 2.690912601638E-02 3.201387917331E-01 -3.404152793266E-01 -7.578962138977E-01 -1.297478342198E-01 2.240841803136E+03
 5.756330417692E+01 8.189324554518E+01 -2.659228843565E+01 2.855013459723E+01 -1.698470207396E+02 -6.874582283189E+00 -2.484007377274E+01 3.103026948699E+01 7.424802530845E+01 1.394251142153E+01 1.565969067157E+00 2.087526595819E+03
 7.590670130559E+01 1.094162419388E+02 -3.625613134781E+01 4.001594917392E+01 -2.303092147888E+02 -1.061404448061E+01 -3.240999168377E+01 4.234681964397E+01 1.024913995325E+02 1.981468904459E+01 2.353956947980E+00 -2.113113539743E+02 1.955657886301E+03
 2.735279813473E+01 4.029724686322E+01 -1.376192365463E+01 1.587599063685E+01 -8.682969773418E+01 -4.776554946167E+00 -1.146045335083E+01 1.611475946982E+01 3.971755351356E+01 7.998675996652E+00 1.032700279623E+00 -8.171277448243E+01 -1.067675345127E+02 2.202972619102E+03
 -6.841853905219E+00 -9.476183689106E+00 2.887542355081E+00 -2.993965403354E+00 1.899289404922E+01 5.542497307655E-01 2.998684731250E+00 -3.398496934353E+00 -7.981372509458E+00 -1.372994312426E+00 -1.516103553547E-01 1.657556148235E+01 2.396800790369E+01 9.889547474538E+00 2.239327354694E+03
 5.064094295005E+01 7.199786019733E+01 -2.331902892059E+01 2.505633215534E+01 -1.491803533992E+02 -6.007274604620E+00 -2.185417361793E+01 2.723167451196E+01 6.515872332393E+01 1.220207753937E+01 1.379446516635E+00 -1.345804897971E+02 -1.857043077328E+02 -7.191844600414E+01 1.446741647380E+01 2.122747664561E+03
 8.432473282569E+01 1.224789025550E+02 -4.096770765749E+01 4.603513116744E+01 -2.599025011988E+02 -1.282320776100E+01 -3.575600975742E+01 4.792696837465E+01 1.168177080240E+02 2.290463365053E+01 2.828552940245E+00 -2.406922544216E+02 -3.211183218265E+02 -1.179669132378E+02 2.789802021351E+01 -2.116008638013E+02 1.881744819288E+03
 -2.062738700230E+01 -2.925182722884E+01 9.437294726154E+00 -1.008179624242E+01 6.043351928256E+01 2.365600744420E+00 8.920113361010E+00 -1.101789670539E+01 -2.630171478094E+01 -4.895632496328E+00 -5.466872948587E-01 5.433934926507E+01 7.529932582463E+01 2.934574546634E+01 -5.782723181360E+00 4.767379571707E+01 8.599594880170E+01 2.221617407767E+03
 -2.380903371173E+01 -3.396846831695E+01 1.109340322394E+01 -1.196176698775E+01 7.069097696579E+01 2.943882070928E+00 1.025479992953E+01 -1.293864684375E+01 -3.102335006752E+01 -5.869545804422E+00 -6.629837996653E-01 6.403106987637E+01 8.783484273702E+01 3.373127445113E+01 -7.015115572632E+00 5.623025639355E+01 9.981430210382E+01 -2.272588797816E+01 2.214136948982E+03
 -6.000567800875E+01 -8.815559482070E+01 2.993283918123E+01 -3.444269838681E+01 1.893410113116E+02 1.022507015238E+01 2.518719583470E+01 -3.507641255707E+01 -8.632279912084E+01 -1.727639531520E+01 -2.231097359288E+00 1.776769201451E+02 2.331186635804E+02 8.325587907995E+01 -2.126718013947E+01 1.563082497532E+02 2.581131308782E+02 -6.373048443682E+01 -7.342561329274E+01 2.058054532722E+03
 -3.265012538135E+00 -4.989193220335E+00 1.797705381908E+00 -2.189375300391E+00 1.116511969453E+01 7.628362639215E-01 1.326222246563E+00 -2.105948595561E+00 -5.317431387829E+00 -1.136785585058E+00 -1.576930833254E-01 1.090010470162E+01 1.356186866810E+01 4.397390453783E+00 -1.452640573282E+00 9.622544503913E+00 1.455264799092E+01 -3.961773505782E+00 -4.451112631237E+00 -9.796785771638E+00 2.240424088277E+03
 -6.179028915223E+01 -8.950501051744E+01 2.980923582581E+01 -3.333270230854E+01 1.893598738235E+02 9.134389787316E+00 2.625766042486E+01 -3.487146768250E+01 -8.481620717560E+01 -1.653650706874E+01 -2.025700105598E+00 1.748129712160E+02 2.341932467428E+02 8.660997092586E+01 -2.007343217650E+01 1.536432545115E+02 2.624967028796E+02 -6.239101806793E+01 -7.256301714541E+01 -1.893290093085E+02 -1.080350639448E+01 2.049129540212E+03
 2.689456644122E+01 3.917710224385E+01 -1.312424766058E+01 1.488878463362E+01 -8.336618993669E+01 -4.223779326360E+00 -1.136628864470E+01 1.537951523371E+01 3.761285056432E+01 7.402490518414E+00 9.363448816598E-01 -7.749475369425E+01 -1.029590102045E+02 -3.754579202431E+01 9.021283090391E+00 -6.811806191217E+01 -1.148049816247E+02 2.770650610505E+01 3.211707964478E+01 8.218854760832E+01 4.583406739956E+00 8.398729908233E+01 2.204200937596E+03
 2.136183607134E+01 3.051914545066E+01 -9.926551773724E+00 1.083255025875E+01 -6.355780318378E+01 -2.705112997581E+00 -9.173225413475E+00 1.161707803071E+01 2.795417808446E+01 5.280309686763E+00 6.226377276636E-01 -5.772060067618E+01 -7.903517208907E+01 -3.023458170702E+01 6.279843068528E+00 -5.065021534391E+01 -8.962497524574E+01 2.047945836946E+01 2.408417182872E+01 6.577449836213E+01 3.980665955113E+00 6.516897661023E+01 -2.878410376964E+01 2.219207104955E+03
 -2.256957880435E+01 -3.288219295418E+01 1.105245764634E+01 -1.248658377539E+01 7.001327979826E+01 3.540330803180E+00 9.546735000590E+00 -1.293036051230E+01 -3.159040764035E+01 -6.232874179758E+00 -7.763120953379E-01 6.506568153229E+01 8.640674567088E+01 3.150456241657E+01 -7.620265536060E+00 5.721863476976E+01 9.637882383186E+01 -2.327485633446E+01 -2.695396326613E+01 -6.900517916167E+01 -3.837158877965E+00 -7.051908453220E+01 3.078506764015E+01 2.419735233098E+01 2.215007206263E+03
 -1.900155488695E+01 -2.751780231141E+01 9.169340680911E+00 -1.023577837459E+01 5.820938794729E+01 2.799652919453E+00 8.078443046999E+00 -1.072138534985E+01 -2.606372574841E+01 -5.082308910019E+00 -6.192167955211E-01 5.371619365823E+01 7.198418373279E+01 2.663855475274E+01 -6.172900942769E+00 4.721601322734E+01 8.071029694904E+01 -1.917214115531E+01 -2.229640178151E+01 -5.823589772156E+01 -3.324527664563E+00 -5.894497041383E+01 2.583089878926E+01 2.003449080590E+01 -2.168355430273E+01 2.222724245017E+03
 3.601648961407E+00 5.091561184916E+00 -1.632529065360E+00 1.734683308310E+00 -1.047946353469E+01 -3.962262925634E-01 -1.560853638411E+00 1.906745555744E+00 4.540409376719E+00 8.379799396735E-01 9.274115134195E-02 -9.385743943938E+00 -1.307543430320E+01 -5.134951732105E+00 9.839551848511E-01 -8.230477454481E+00 -1.497240782559E+01 3.315919548962E+00 3.930535189753E+00 1.113894759656E+01 7.012000905466E-01 1.085134593782E+01 -4.827500312601E+00 -3.541271496139E+00 4.057006572603E+00 3.334535219608E+00 2.240275135625E+03
 9.673357166020E+00 1.492829325856E+01 -5.418273166166E+00 6.744735988737E+00 -3.370433372573E+01 -2.428108170423E+00 -3.885248154928E+00 6.369674546664E+00 1.621748142497E+01 3.501209503584E+00 5.062748700181E-01 -3.323375527615E+01 -4.086964083843E+01 -1.292683869416E+01 4.483517797456E+00 -2.933456080861E+01 -4.347913107375E+01 1.210334321888E+01 1.354659959429E+01 2.887046430539E+01 1.172315908694E+00 3.236401903675E+01 -1.363192719910E+01 -1.206658394033E+01 1.142888357473E+01 9.965928662502E+00 -2.146434513481E+00 2.237676765659E+03
 -8.027945224489E+01 -1.157784554827E+02 3.831123221746E+01 -4.245919434087E+01 2.437668347316E+02 1.131349680905E+01 3.423969719230E+01 -4.480018421481E+01 -1.085629352903E+02 -2.097799957955E+01 -2.526806515933E+00 2.238642054338E+02 3.019342154886E+02 1.128767641712E+02 -2.533537276593E+01 1.966844809090E+02 3.397178457977E+02 -7.976268283381E+01 -9.306151913051E+01 -2.464079784218E+02 -1.432441654412E+01 -2.477776886838E+02 1.088497379540E+02 8.363361352866E+01 -9.140413466099E+01 -7.617296055584E+01 1.384979269668E+01 4.310159505076E+01 1.921321323258E+03
 -3.680694613164E+01 -5.233182029803E+01 1.697282347920E+01 -1.820436357424E+01 1.084567475933E+02 4.362175672489E+00 1.588974922290E+01 -1.980692901078E+01 -4.737178969601E+01 -8.880984602547E+00 -9.962370492059E-01 9.782969948433E+01 1.349715342661E+02 5.227054961364E+01 -1.054564953054E+01 8.586500610270E+01 1.538162278809E+02 -3.466269823271E+01 -4.086759594037E+01 -1.136310259679E+02 -6.988634482460E+00 -1.116927555625E+02 4.953033826356E+01 3.683840723213E+01 -4.159014049639E+01 -3.432091777301E+01 5.985271692389E+00 2.131649671598E+01 -1.429869332516E+02 2.178426515102E+03

