 Job started on host DESKTOP-5CQNRD0
 at Sun Sep  1 17:13:52 2019

 +-------------------------------------------------+
 |                                                 |
 |      CCC   AA    SSS  TTTTT  EEEEE  PPPP        |
 |     C     A  A  S       T    E      P   P       |
 |     C     AAAA   SS     T    EEE    PPPP        |
 |     C     A  A     S    T    E      P           |
 |      CCC  A  A  SSS     T    EEEEE  P           |
 |                                                 |
 +-------------------------------------------------+
 |                                                 |
 | Materials Studio CASTEP version 2017            |
 | Ab Initio Total Energy Program                  |
 |                                                 |
 | Authors:                                        |
 | M. Segall, M. Probert, C. Pickard, P. Hasnip,   |
 | S. Clark, K. Refson, J. R. Yates, M. Payne      |
 |                                                 |
 | Contributors:                                   |
 | P. Lindan, P. Haynes, J. White, V. Milman,      |
 | N. Govind, M. Gibson, P. Tulip, V. Cocula,      |
 | B. Montanari, D. Quigley, M. Glover,            |
 | L. Bernasconi, A. Perlov, M. Plummer,           |
 | E. McNellis, J. Meyer, J. Gale, D. Jochym       |
 | J. Aarons, B. Walker, R. Gillen, D. Jones       |
 | T. Green, I. J. Bush, C. J. Armstrong,          |
 | E. J. Higgins, E. L. Brown, M. S. McFly         |
 |                                                 |
 | Copyright (c) 2000 - 2016                       |
 |                                                 |
 | Please cite                                     |
 |                                                 |
 |     "First principles methods using CASTEP"     |
 |                                                 |
 |         Zeitschrift fuer Kristallographie       |
 |           220(5-6) pp. 567-570 (2005)           |
 |                                                 |
 | S. J. Clark, M. D. Segall, C. J. Pickard,       |
 | P. J. Hasnip, M. J. Probert, K. Refson,         |
 | M. C. Payne                                     |
 |                                                 |
 |       in all publications arising from          |
 |              your use of CASTEP                 |
 |                                                 |
 +-------------------------------------------------+
 
 
 This version was compiled for x86_64-windows-msvc2008 on May 05 2016
 Intel(R) Math Kernel Library Version 11.1.2 
 Fundamental constants values: CODATA 2010
 
License checkout of MS_castep successful
 
 
 Atomic calculation performed for O: 1s2 2s2 2p4
 
 Converged in 61 iterations to an ae energy of -2040.902 eV
 
 Identity difference: 4.10E-04
 
   ============================================================                
   | Pseudopotential Report - Date of generation  1-09-2019   |                
   ------------------------------------------------------------                
   | Element: O Ionic charge:  6.00 Level of theory: PBE      |                
   | Atomic Solver: Koelling-Harmon                           |                
   |                                                          |                
   |               Reference Electronic Structure             |                
   |         Orbital         Occupation         Energy        |                
   |            2s              2.000           -0.881        |                
   |            2p              4.000           -0.332        |                
   |                                                          |                
   |                 Pseudopotential Definition               |                
   |        Beta     l      e      Rc     scheme   norm       |                
   |          1      0   -0.881   1.100     qc      0         |                
   |          2      0    0.250   1.100     qc      0         |                
   |          3      1   -0.332   1.100     qc      0         |                
   |          4      1    0.250   1.100     qc      0         |                
   |         loc     2    0.000   1.100     pn      0         |                
   |                                                          |                
   | Augmentation charge Rinner = 0.769                       |                
   | Partial core correction Rc = 0.769                       |                
   ------------------------------------------------------------                
   | "2|1.1|14|18|21|20UU:21UU(qc=7)[]"                       |                
   ------------------------------------------------------------                
   |      Author: Chris J. Pickard, Cambridge University      |                
   ============================================================                
 
 Doing a self consistent calculation for the test configuration
 
 Atomic calculation performed for O: 1s2 2s2 2p4
 
 Converged in 61 iterations to an ae energy of -2040.902 eV
 
 ---------------------------------------
 AE eigenvalue nl 10 =      -18.91475256
 AE eigenvalue nl 20 =       -0.88057101
 AE eigenvalue nl 21 =       -0.33186952
 ---------------------------------------
 PS eigenvalue nl 20 =       -0.88059206
 PS eigenvalue nl 21 =       -0.33182157
 ---------------------------------------
 Maximum eigenvalue error:   4.80E-05
 
 Derived cutoff energies: C=  14 M=  17 F=  20 E=  22
 
 
 ***************************************
 
 Atomic calculation performed for Zn: 1s2 2s2 2p6 3s2 3p6 3d10 4s2
 
 Converged in 115 iterations to an ae energy of -48872.128 eV
 
 Identity difference: 2.13E-04
 
   ============================================================                
   | Pseudopotential Report - Date of generation  1-09-2019   |                
   ------------------------------------------------------------                
   | Element: Zn Ionic charge: 12.00 Level of theory: PBE     |                
   | Atomic Solver: Koelling-Harmon                           |                
   |                                                          |                
   |               Reference Electronic Structure             |                
   |         Orbital         Occupation         Energy        |                
   |            3d             10.000           -0.373        |                
   |            4s              2.000           -0.220        |                
   |                                                          |                
   |                 Pseudopotential Definition               |                
   |        Beta     l      e      Rc     scheme   norm       |                
   |          1      0   -0.220   1.995     qc      0         |                
   |          2      0    0.250   1.995     qc      0         |                
   |          3      1    0.000   1.995     qc      0         |                
   |          4      1    0.250   1.995     qc      0         |                
   |          5      2   -0.373   1.995     qc      0         |                
   |          6      2    0.250   1.995     qc      0         |                
   |         loc     3    0.000   1.995     pn      0         |                
   |                                                          |                
   | Augmentation charge Rinner = 0.999                       |                
   | Partial core correction Rc = 0.999                       |                
   ------------------------------------------------------------                
   | "3|2|2|1|11|12.8|14.5|40UU:41UU:32UU(qc=6)[]"            |                
   ------------------------------------------------------------                
   |      Author: Chris J. Pickard, Cambridge University      |                
   ============================================================                
 
 Doing a self consistent calculation for the test configuration
 
 Atomic calculation performed for Zn: 1s2 2s2 2p6 3s2 3p6 3d10 4s2
 
 Converged in 115 iterations to an ae energy of -48872.128 eV
 
 ---------------------------------------
 AE eigenvalue nl 10 =     -350.06398677
 AE eigenvalue nl 20 =      -42.56787896
 AE eigenvalue nl 21 =      -36.89737008
 AE eigenvalue nl 30 =       -4.74919493
 AE eigenvalue nl 31 =       -3.06498588
 AE eigenvalue nl 32 =       -0.37265464
 AE eigenvalue nl 40 =       -0.21971923
 ---------------------------------------
 PS eigenvalue nl 32 =       -0.37250728
 PS eigenvalue nl 40 =       -0.21973464
 ---------------------------------------
 Maximum eigenvalue error:   1.47E-04
 
 Derived cutoff energies: C=   9 M=  12 F=  12 E=  14
 
 
 ***************************************
 
 Pseudo atomic calculation performed for O 2s2 2p4
 
 Converged in 24 iterations to a total energy of -432.6196 eV
 
 
 Pseudo atomic calculation performed for Zn 3d10 4s2
 
 Converged in 44 iterations to a total energy of -2035.7248 eV
 
 Calculation parallelised over 2 processes.
 Data is distributed by k-point(2-way)

 ************************************ Title ************************************
 CASTEP calculation from Materials Studio

 ***************************** General Parameters ******************************
  
 output verbosity                               : normal  (1)
 write checkpoint data to                       : ZnO.check
 type of calculation                            : geometry optimization
 stress calculation                             : on
 density difference calculation                 : off
 electron localisation func (ELF) calculation   : off
 Hirshfeld analysis                             : off
 unlimited duration calculation
 timing information                             : on
 memory usage estimate                          : on
 write final potential to formatted file        : off
 write final density to formatted file          : off
 write BibTeX reference list                    : on
 write OTFG pseudopotential files               : on
 checkpoint writing                             : both castep_bin and check files
  
 output         length unit                     : A
 output           mass unit                     : amu
 output           time unit                     : ps
 output         charge unit                     : e
 output           spin unit                     : hbar/2
 output         energy unit                     : eV
 output          force unit                     : eV/A
 output       velocity unit                     : A/ps
 output       pressure unit                     : GPa
 output     inv_length unit                     : 1/A
 output      frequency unit                     : cm-1
 output force constant unit                     : eV/A**2
 output         volume unit                     : A**3
 output   IR intensity unit                     : (D/A)**2/amu
 output         dipole unit                     : D
 output         efield unit                     : eV/A/e
 output        entropy unit                     : J/mol/K
  
 wavefunctions paging                           : none
 random number generator seed                   : randomised (171404150)
 data distribution                              : optimal for this architecture
 optimization strategy                          : maximize speed(+++)

 *********************** Exchange-Correlation Parameters ***********************
  
 using functional                               : Perdew Burke Ernzerhof
 relativistic treatment                         : Koelling-Harmon
 DFT+D: Semi-empirical dispersion correction    : off

 ************************* Pseudopotential Parameters **************************
  
 pseudopotential representation                 : reciprocal space
 <beta|phi> representation                      : reciprocal space
 spin-orbit coupling                            : off

 **************************** Basis Set Parameters *****************************
  
 plane wave basis set cut-off                   :   571.4000   eV
 size of standard grid                          :     1.7500
 size of   fine   grid                          :     2.1000
 size of   fine   gmax                          :    25.7175   1/A
 largest prime factor in FFT                    :          5
 finite basis set correction                    : automatic
 number of sample energies                      :          3
           sample  spacing                      :     5.0000   eV

 **************************** Electronic Parameters ****************************
  
 number of  electrons                           :  18.00    
 net charge of system                           :  0.000    
 treating system as non-spin-polarized
 number of bands                                :         13

 ********************* Electronic Minimization Parameters **********************
  
 Method: Treating system as metallic with density mixing treatment of electrons,
         and number of  SD  steps               :          1
         and number of  CG  steps               :          4
  
 total energy / atom convergence tol.           : 0.1000E-05   eV
 eigen-energy convergence tolerance             : 0.1538E-06   eV
 max force / atom convergence tol.              : ignored
 convergence tolerance window                   :          3   cycles
 max. number of SCF cycles                      :        100
 number of fixed-spin iterations                :         10
 smearing scheme                                : Gaussian
 smearing width                                 : 0.1000       eV
 Fermi energy convergence tolerance             : 0.2721E-13   eV
 periodic dipole correction                     : NONE

 ************************** Density Mixing Parameters **************************
  
 density-mixing scheme                          : Pulay
 max. length of mixing history                  :         20
 charge density mixing amplitude                : 0.5000    
 cut-off energy for mixing                      :  571.4       eV
 charge density mixing g-vector                 :  1.500       1/A

 ********************** Geometry Optimization Parameters ***********************
  
 optimization method                            : BFGS
 variable cell method                           : fixed basis quality
 max. number of steps                           :        100
 estimated bulk modulus                         :  500.0       GPa
 estimated <frequency>                          :  1668.       cm-1
 geom line minimiser                            : on
 with line minimiser tolerance                  :     0.4000
 total energy convergence tolerance             : 0.1000E-04   eV/atom
        max ionic |force| tolerance             : 0.3000E-01   eV/A
 max ionic |displacement| tolerance             : 0.1000E-02   A
   max |stress component| tolerance             : 0.5000E-01   GPa
 convergence tolerance window                   :          2   steps
 backup results every                           :          5   steps

 *******************************************************************************
  
 
                           -------------------------------
                                      Unit Cell
                           -------------------------------
        Real Lattice(A)                      Reciprocal Lattice(1/A)
   0.0000000   2.3150000   2.3150000       -1.3570595   1.3570595   1.3570595
   2.3150000   0.0000000   2.3150000        1.3570595  -1.3570595   1.3570595
   2.3150000   2.3150000   0.0000000        1.3570595   1.3570595  -1.3570595
 
                       Lattice parameters(A)       Cell Angles
                    a =    3.273904          alpha =   60.000000
                    b =    3.273904          beta  =   60.000000
                    c =    3.273904          gamma =   60.000000
 
                       Current cell volume =   24.813212       A**3
 
                           -------------------------------
                                     Cell Contents
                           -------------------------------
                         Total number of ions in cell =    2
                      Total number of species in cell =    2
                        Max number of any one species =    1
 
            xxxxxxxxxxxxxxxxxxxxxxxxxxxxxxxxxxxxxxxxxxxxxxxxxxxxxxxxxxxx
            x  Element    Atom        Fractional coordinates of atoms  x
            x            Number           u          v          w      x
            x----------------------------------------------------------x
            x  O            1         0.250000   0.250000   0.250000   x 
            x  Zn           1         0.000000   0.000000   0.000000   x 
            xxxxxxxxxxxxxxxxxxxxxxxxxxxxxxxxxxxxxxxxxxxxxxxxxxxxxxxxxxxx
 
 
                         No user defined ionic velocities
 
                           -------------------------------
                                   Details of Species
                           -------------------------------
 
                               Mass of species in AMU
                                    O   15.9989996
                                    Zn   65.3799973
 
                          Electric Quadrupole Moment (Barn)
                                    O   -0.0255800 Isotope 17
                                    Zn    0.1500000 Isotope 67
 
                          Files used for pseudopotentials:
                                    O 2|1.1|14|18|21|20UU:21UU(qc=7)[]
                                    Zn 3|2|2|1|11|12.8|14.5|40UU:41UU:32UU(qc=6)[]
 
                           -------------------------------
                              k-Points For BZ Sampling
                           -------------------------------
                       MP grid size for SCF calculation is  9  9  9
                            with an offset of   0.000  0.000  0.000
                       Number of kpoints used =            35
 
                           -------------------------------
                               Symmetry and Constraints
                           -------------------------------
 
                      Maximum deviation from symmetry = 0.257017E-15     ANG
 
                      Number of symmetry operations   =          24
         There are no ionic constraints specified or generated for this cell
                      Point group of crystal =    30: Td, -43m, -4 3 m
                      Space group of crystal =   216: F-43m, F -4 2 3
 
             Set iprint > 1 for details on symmetry rotations/translations
 
                         Centre of mass is NOT constrained
 
                         Number of cell constraints= 5
                         Cell constraints are:  1 1 1 0 0 0
 
                         External pressure/stress (GPa)
                          0.00000   0.00000   0.00000
                                    0.00000   0.00000
                                              0.00000
  
+---------------- MEMORY AND SCRATCH DISK ESTIMATES PER PROCESS --------------+
|                                                     Memory          Disk    |
| Baseline code, static data and system overhead        0.0 MB         0.0 MB |
| BLAS internal memory storage                          0.0 MB         0.0 MB |
| Model and support data                               65.5 MB         0.0 MB |
| Electronic energy minimisation requirements           8.5 MB         0.0 MB |
| Force calculation requirements                        3.2 MB         0.0 MB |
| Stress calculation requirements                       3.6 MB         0.0 MB |
|                                               ----------------------------- |
| Approx. total storage required per process           74.0 MB         0.0 MB |
|                                                                             |
| Requirements will fluctuate during execution and may exceed these estimates |
+-----------------------------------------------------------------------------+
Calculating finite basis set correction with  3 cut-off energies.
Calculating total energy with cut-off of  561.400eV.
------------------------------------------------------------------------ <-- SCF
SCF loop      Energy           Fermi           Energy gain       Timer   <-- SCF
                               energy          per atom          (sec)   <-- SCF
------------------------------------------------------------------------ <-- SCF
Initial  -2.34280089E+003  0.00000000E+000                        16.61  <-- SCF
      1  -2.43505728E+003  5.98987015E+000   4.61281938E+001      17.38  <-- SCF
      2  -2.47879734E+003  1.88586169E+000   2.18700336E+001      17.95  <-- SCF
      3  -2.47934511E+003  2.28721182E+000   2.73883441E-001      18.50  <-- SCF
      4  -2.47788124E+003  3.15710876E+000  -7.31934461E-001      19.22  <-- SCF
      5  -2.47774027E+003  2.88440064E+000  -7.04876733E-002      19.94  <-- SCF
      6  -2.47772935E+003  2.97619165E+000  -5.45815484E-003      20.61  <-- SCF
      7  -2.47772997E+003  2.99499901E+000   3.08283101E-004      21.25  <-- SCF
      8  -2.47773039E+003  3.00152903E+000   2.10938368E-004      21.91  <-- SCF
      9  -2.47773037E+003  3.00423371E+000  -8.24179196E-006      22.48  <-- SCF
     10  -2.47773037E+003  3.00825640E+000  -1.39360992E-006      23.08  <-- SCF
     11  -2.47773037E+003  3.00798249E+000  -5.64577679E-009      23.53  <-- SCF
     12  -2.47773037E+003  3.00781680E+000  -9.18598819E-010      24.00  <-- SCF
------------------------------------------------------------------------ <-- SCF
 
Final energy, E             =  -2477.730369001     eV
Final free energy (E-TS)    =  -2477.730369021     eV
(energies not corrected for finite basis set)
 
NB est. 0K energy (E-0.5TS)      =  -2477.730369011     eV
 
Calculating total energy with cut-off of  566.400eV.
------------------------------------------------------------------------ <-- SCF
SCF loop      Energy           Fermi           Energy gain       Timer   <-- SCF
                               energy          per atom          (sec)   <-- SCF
------------------------------------------------------------------------ <-- SCF
Initial  -2.47773036E+003  0.00000000E+000                        24.22  <-- SCF
      1  -2.47773817E+003  3.00778365E+000   3.90258867E-003      24.80  <-- SCF
      2  -2.47773817E+003  3.00778365E+000   2.67324631E-007      25.25  <-- SCF
      3  -2.47773817E+003  3.00904223E+000   1.19914830E-006      25.72  <-- SCF
      4  -2.47773817E+003  3.00805001E+000   1.26069229E-006      26.19  <-- SCF
      5  -2.47773817E+003  3.00967798E+000   7.25028335E-007      26.70  <-- SCF
      6  -2.47773817E+003  3.00869991E+000  -1.02441266E-006      27.19  <-- SCF
      7  -2.47773817E+003  3.00855852E+000   1.67741442E-008      27.69  <-- SCF
      8  -2.47773817E+003  3.00864168E+000  -4.49148612E-009      28.25  <-- SCF
------------------------------------------------------------------------ <-- SCF
 
Final energy, E             =  -2477.738170074     eV
Final free energy (E-TS)    =  -2477.738170095     eV
(energies not corrected for finite basis set)
 
NB est. 0K energy (E-0.5TS)      =  -2477.738170084     eV
 
Calculating total energy with cut-off of  571.400eV.
------------------------------------------------------------------------ <-- SCF
SCF loop      Energy           Fermi           Energy gain       Timer   <-- SCF
                               energy          per atom          (sec)   <-- SCF
------------------------------------------------------------------------ <-- SCF
Initial  -2.47773816E+003  0.00000000E+000                        28.52  <-- SCF
      1  -2.47774613E+003  3.00868730E+000   3.98689919E-003      29.12  <-- SCF
      2  -2.47774614E+003  3.00868730E+000   2.86225029E-007      29.55  <-- SCF
      3  -2.47774614E+003  3.00993721E+000   1.57366728E-006      29.98  <-- SCF
      4  -2.47774614E+003  3.00893869E+000   1.52102814E-006      30.41  <-- SCF
      5  -2.47774614E+003  3.01057776E+000   7.12967834E-007      30.89  <-- SCF
      6  -2.47774614E+003  3.00959081E+000  -9.96828210E-007      31.28  <-- SCF
------------------------------------------------------------------------ <-- SCF
 
Final energy, E             =  -2477.746141145     eV
Final free energy (E-TS)    =  -2477.746141166     eV
(energies not corrected for finite basis set)
 
NB est. 0K energy (E-0.5TS)      =  -2477.746141155     eV
 
 For future reference: finite basis dEtot/dlog(Ecut) =      -0.865603eV
 Total energy corrected for finite basis set =   -2477.745683 eV
 
+---------------- MEMORY AND SCRATCH DISK ESTIMATES PER PROCESS --------------+
|                                                     Memory          Disk    |
| Model and support data                               76.1 MB         0.0 MB |
| Electronic energy minimisation requirements           8.5 MB         0.0 MB |
| Geometry minimisation requirements                   11.7 MB         0.0 MB |
|                                               ----------------------------- |
| Approx. total storage required per process           96.2 MB         0.0 MB |
|                                                                             |
| Requirements will fluctuate during execution and may exceed these estimates |
+-----------------------------------------------------------------------------+
 
 
 ***************** Stress Tensor *****************
 *                                               *
 *          Cartesian components (GPa)           *
 * --------------------------------------------- *
 *             x             y             z     *
 *                                               *
 *  x      0.916020      0.000000      0.000000  *
 *  y      0.000000      0.916020      0.000000  *
 *  z      0.000000      0.000000      0.916020  *
 *                                               *
 *  Pressure:   -0.9160                          *
 *                                               *
 *************************************************
 BFGS: finished iteration     0 with enthalpy= -2.47774568E+003 eV
  
 +-----------+-----------------+-----------------+------------+-----+ <-- BFGS
 | Parameter |      value      |    tolerance    |    units   | OK? | <-- BFGS
 +-----------+-----------------+-----------------+------------+-----+ <-- BFGS
 |  dE/ion   |   0.000000E+000 |   1.000000E-005 |         eV | No  | <-- BFGS
 |   Smax    |   9.160202E-001 |   5.000000E-002 |        GPa | No  | <-- BFGS
 +-----------+-----------------+-----------------+------------+-----+ <-- BFGS
  

================================================================================
 Starting BFGS iteration          1 ...
================================================================================
  
 +------------+-------------+-------------+-----------------+ <-- min BFGS
 |    Step    |   lambda    |   F.delta'  |    enthalpy     | <-- min BFGS
 +------------+-------------+-------------+-----------------+ <-- min BFGS
 |  previous  |    0.000000 |    0.009030 |    -2477.745683 | <-- min BFGS
 +------------+-------------+-------------+-----------------+ <-- min BFGS
  

--------------------------------------------------------------------------------
 BFGS: starting iteration         1 with trial guess (lambda=  1.000000)
--------------------------------------------------------------------------------
 
                           -------------------------------
                                      Unit Cell
                           -------------------------------
        Real Lattice(A)              Reciprocal Lattice(1/A)
   0.0000000   2.3135863   2.3135863       -1.3578887   1.3578887   1.3578887
   2.3135863   0.0000000   2.3135863        1.3578887  -1.3578887   1.3578887
   2.3135863   2.3135863  -0.0000000        1.3578887   1.3578887  -1.3578887
 
                       Lattice parameters(A)       Cell Angles
                    a =    3.271905          alpha =   60.000000
                    b =    3.271905          beta  =   60.000000
                    c =    3.271905          gamma =   60.000000
 
                Current cell volume =   24.767781 A**3
 
------------------------------------------------------------------------ <-- SCF
SCF loop      Energy           Fermi           Energy gain       Timer   <-- SCF
                               energy          per atom          (sec)   <-- SCF
------------------------------------------------------------------------ <-- SCF
Initial  -2.47774538E+003  0.00000000E+000                        34.36  <-- SCF
      1  -2.47774830E+003  3.06722938E+000   1.45728414E-003      34.86  <-- SCF
      2  -2.47774830E+003  3.06722908E+000   9.57870610E-007      35.45  <-- SCF
      3  -2.47774655E+003  3.02462045E+000  -8.74493955E-004      36.08  <-- SCF
      4  -2.47774652E+003  3.02986240E+000  -1.62945103E-005      36.75  <-- SCF
      5  -2.47774652E+003  3.03011071E+000   1.09563588E-006      37.16  <-- SCF
      6  -2.47774652E+003  3.02983940E+000  -6.33655305E-008      37.58  <-- SCF
      7  -2.47774652E+003  3.02968362E+000   9.30779776E-009      38.03  <-- SCF
------------------------------------------------------------------------ <-- SCF
 
Final energy, E             =  -2477.746518368     eV
Final free energy (E-TS)    =  -2477.746518387     eV
(energies not corrected for finite basis set)
 
NB est. 0K energy (E-0.5TS)      =  -2477.746518378     eV
 
 
 ***************** Stress Tensor *****************
 *                                               *
 *          Cartesian components (GPa)           *
 * --------------------------------------------- *
 *             x             y             z     *
 *                                               *
 *  x      0.585580      0.000000      0.000000  *
 *  y      0.000000      0.585580      0.000000  *
 *  z      0.000000      0.000000      0.585580  *
 *                                               *
 *  Pressure:   -0.5856                          *
 *                                               *
 *************************************************
  
 +------------+-------------+-------------+-----------------+ <-- min BFGS
 |    Step    |   lambda    |   F.delta'  |    enthalpy     | <-- min BFGS
 +------------+-------------+-------------+-----------------+ <-- min BFGS
 |  previous  |    0.000000 |    0.009030 |    -2477.745683 | <-- min BFGS
 | trial step |    1.000000 |    0.005766 |    -2477.745990 | <-- min BFGS
 +------------+-------------+-------------+-----------------+ <-- min BFGS
  

--------------------------------------------------------------------------------
 BFGS: improving iteration         1 with line minimization (lambda=  2.766135)
--------------------------------------------------------------------------------
 
                           -------------------------------
                                      Unit Cell
                           -------------------------------
        Real Lattice(A)              Reciprocal Lattice(1/A)
   0.0000000   2.3110894   2.3110894       -1.3593557   1.3593557   1.3593557
   2.3110894   0.0000000   2.3110894        1.3593557  -1.3593557   1.3593557
   2.3110894   2.3110894  -0.0000000        1.3593557   1.3593557  -1.3593557
 
                       Lattice parameters(A)       Cell Angles
                    a =    3.268374          alpha =   60.000000
                    b =    3.268374          beta  =   60.000000
                    c =    3.268374          gamma =   60.000000
 
                Current cell volume =   24.687679 A**3
 
------------------------------------------------------------------------ <-- SCF
SCF loop      Energy           Fermi           Energy gain       Timer   <-- SCF
                               energy          per atom          (sec)   <-- SCF
------------------------------------------------------------------------ <-- SCF
Initial  -2.47774281E+003  0.00000000E+000                        40.97  <-- SCF
      1  -2.47775198E+003  3.13228970E+000   4.58444979E-003      41.52  <-- SCF
      2  -2.47775199E+003  3.13228875E+000   3.19021501E-006      42.12  <-- SCF
      3  -2.47774648E+003  3.05632744E+000  -2.75561360E-003      42.67  <-- SCF
      4  -2.47774637E+003  3.06561477E+000  -5.55011533E-005      43.28  <-- SCF
      5  -2.47774637E+003  3.06609152E+000   3.59247003E-006      43.70  <-- SCF
      6  -2.47774637E+003  3.06563012E+000  -1.91123272E-007      44.08  <-- SCF
      7  -2.47774637E+003  3.06534609E+000   3.07377743E-008      44.50  <-- SCF
------------------------------------------------------------------------ <-- SCF
 
Final energy, E             =  -2477.746372616     eV
Final free energy (E-TS)    =  -2477.746372632     eV
(energies not corrected for finite basis set)
 
NB est. 0K energy (E-0.5TS)      =  -2477.746372624     eV
 
 
 ***************** Stress Tensor *****************
 *                                               *
 *          Cartesian components (GPa)           *
 * --------------------------------------------- *
 *             x             y             z     *
 *                                               *
 *  x      0.172562      0.000000      0.000000  *
 *  y      0.000000      0.172562      0.000000  *
 *  z      0.000000      0.000000      0.172562  *
 *                                               *
 *  Pressure:   -0.1726                          *
 *                                               *
 *************************************************
  
 +------------+-------------+-------------+-----------------+ <-- min BFGS
 |    Step    |   lambda    |   F.delta'  |    enthalpy     | <-- min BFGS
 +------------+-------------+-------------+-----------------+ <-- min BFGS
 |  previous  |    0.000000 |    0.009030 |    -2477.745683 | <-- min BFGS
 | trial step |    1.000000 |    0.005766 |    -2477.745990 | <-- min BFGS
 |  line step |    2.766135 |    0.001695 |    -2477.746405 | <-- min BFGS
 +------------+-------------+-------------+-----------------+ <-- min BFGS
  
 BFGS: finished iteration     1 with enthalpy= -2.47774641E+003 eV
  
 +-----------+-----------------+-----------------+------------+-----+ <-- BFGS
 | Parameter |      value      |    tolerance    |    units   | OK? | <-- BFGS
 +-----------+-----------------+-----------------+------------+-----+ <-- BFGS
 |  dE/ion   |   3.610789E-004 |   1.000000E-005 |         eV | No  | <-- BFGS
 |   Smax    |   1.725617E-001 |   5.000000E-002 |        GPa | No  | <-- BFGS
 +-----------+-----------------+-----------------+------------+-----+ <-- BFGS
  

================================================================================
 Starting BFGS iteration          2 ...
================================================================================
  
 +------------+-------------+-------------+-----------------+ <-- min BFGS
 |    Step    |   lambda    |   F.delta'  |    enthalpy     | <-- min BFGS
 +------------+-------------+-------------+-----------------+ <-- min BFGS
 |  previous  |    0.000000 |    0.001695 |    -2477.746405 | <-- min BFGS
 +------------+-------------+-------------+-----------------+ <-- min BFGS
  

--------------------------------------------------------------------------------
 BFGS: starting iteration         2 with trial guess (lambda=  1.000000)
--------------------------------------------------------------------------------
 
                           -------------------------------
                                      Unit Cell
                           -------------------------------
        Real Lattice(A)              Reciprocal Lattice(1/A)
   0.0000000   2.3101856   2.3101856       -1.3598876   1.3598876   1.3598876
   2.3101856   0.0000000   2.3101856        1.3598876  -1.3598876   1.3598876
   2.3101856   2.3101856  -0.0000000        1.3598876   1.3598876  -1.3598876
 
                       Lattice parameters(A)       Cell Angles
                    a =    3.267096          alpha =   60.000000
                    b =    3.267096          beta  =   60.000000
                    c =    3.267096          gamma =   60.000000
 
                Current cell volume =   24.658723 A**3
 
------------------------------------------------------------------------ <-- SCF
SCF loop      Energy           Fermi           Energy gain       Timer   <-- SCF
                               energy          per atom          (sec)   <-- SCF
------------------------------------------------------------------------ <-- SCF
Initial  -2.47774604E+003  0.00000000E+000                        45.19  <-- SCF
      1  -2.47774727E+003  3.10264850E+000   6.15264065E-004      45.75  <-- SCF
      2  -2.47774727E+003  3.10264837E+000   3.74967939E-007      46.30  <-- SCF
      3  -2.47774653E+003  3.07514417E+000  -3.67644332E-004      46.86  <-- SCF
      4  -2.47774652E+003  3.07848795E+000  -6.84652330E-006      47.48  <-- SCF
      5  -2.47774652E+003  3.07864681E+000   4.45068765E-007      47.89  <-- SCF
      6  -2.47774652E+003  3.07847594E+000  -2.59131487E-008      48.33  <-- SCF
------------------------------------------------------------------------ <-- SCF
 
Final energy, E             =  -2477.746521853     eV
Final free energy (E-TS)    =  -2477.746521869     eV
(energies not corrected for finite basis set)
 
NB est. 0K energy (E-0.5TS)      =  -2477.746521861     eV
 
 
 ***************** Stress Tensor *****************
 *                                               *
 *          Cartesian components (GPa)           *
 * --------------------------------------------- *
 *             x             y             z     *
 *                                               *
 *  x      0.110676      0.000000      0.000000  *
 *  y      0.000000      0.110676      0.000000  *
 *  z      0.000000      0.000000      0.110676  *
 *                                               *
 *  Pressure:   -0.1107                          *
 *                                               *
 *************************************************
  
 +------------+-------------+-------------+-----------------+ <-- min BFGS
 |    Step    |   lambda    |   F.delta'  |    enthalpy     | <-- min BFGS
 +------------+-------------+-------------+-----------------+ <-- min BFGS
 |  previous  |    0.000000 |    0.001695 |    -2477.746405 | <-- min BFGS
 | trial step |    1.000000 |    0.001086 |    -2477.746496 | <-- min BFGS
 +------------+-------------+-------------+-----------------+ <-- min BFGS
  

--------------------------------------------------------------------------------
 BFGS: improving iteration         2 with line minimization (lambda=  2.784505)
--------------------------------------------------------------------------------
 
                           -------------------------------
                                      Unit Cell
                           -------------------------------
        Real Lattice(A)              Reciprocal Lattice(1/A)
   0.0000000   2.3085726   2.3085726       -1.3608377   1.3608377   1.3608377
   2.3085726   0.0000000   2.3085726        1.3608377  -1.3608377   1.3608377
   2.3085726   2.3085726  -0.0000000        1.3608377   1.3608377  -1.3608377
 
                       Lattice parameters(A)       Cell Angles
                    a =    3.264815          alpha =   60.000000
                    b =    3.264815          beta  =   60.000000
                    c =    3.264815          gamma =   60.000000
 
                Current cell volume =   24.607108 A**3
 
------------------------------------------------------------------------ <-- SCF
SCF loop      Energy           Fermi           Energy gain       Timer   <-- SCF
                               energy          per atom          (sec)   <-- SCF
------------------------------------------------------------------------ <-- SCF
Initial  -2.47774484E+003  0.00000000E+000                        51.33  <-- SCF
      1  -2.47774866E+003  3.14469436E+000   1.91186066E-003      51.81  <-- SCF
      2  -2.47774867E+003  3.14469395E+000   1.24055195E-006      52.28  <-- SCF
      3  -2.47774637E+003  3.09579271E+000  -1.14719309E-003      52.78  <-- SCF
      4  -2.47774633E+003  3.10174294E+000  -2.24101832E-005      53.31  <-- SCF
      5  -2.47774633E+003  3.10204420E+000   1.42019612E-006      53.72  <-- SCF
      6  -2.47774633E+003  3.10174024E+000  -8.24650773E-008      54.08  <-- SCF
      7  -2.47774633E+003  3.10156087E+000   1.21310728E-008      54.47  <-- SCF
------------------------------------------------------------------------ <-- SCF
 
Final energy, E             =  -2477.746329001     eV
Final free energy (E-TS)    =  -2477.746329015     eV
(energies not corrected for finite basis set)
 
NB est. 0K energy (E-0.5TS)      =  -2477.746329008     eV
 
 
 ***************** Stress Tensor *****************
 *                                               *
 *          Cartesian components (GPa)           *
 * --------------------------------------------- *
 *             x             y             z     *
 *                                               *
 *  x     -0.214140     -0.000000      0.000000  *
 *  y     -0.000000     -0.214140      0.000000  *
 *  z      0.000000      0.000000     -0.214140  *
 *                                               *
 *  Pressure:    0.2141                          *
 *                                               *
 *************************************************
  
 +------------+-------------+-------------+-----------------+ <-- min BFGS
 |    Step    |   lambda    |   F.delta'  |    enthalpy     | <-- min BFGS
 +------------+-------------+-------------+-----------------+ <-- min BFGS
 |  previous  |    0.000000 |    0.001695 |    -2477.746405 | <-- min BFGS
 | trial step |    1.000000 |    0.001086 |    -2477.746496 | <-- min BFGS
 |  line step |    2.784505 |   -0.002099 |    -2477.746588 | <-- min BFGS
 +------------+-------------+-------------+-----------------+ <-- min BFGS
  

--------------------------------------------------------------------------------
 BFGS: improving iteration         2 with quad minimization (lambda=  1.608603)
--------------------------------------------------------------------------------
 
                           -------------------------------
                                      Unit Cell
                           -------------------------------
        Real Lattice(A)              Reciprocal Lattice(1/A)
   0.0000000   2.3096354   2.3096354       -1.3602115   1.3602115   1.3602115
   2.3096354   0.0000000   2.3096354        1.3602115  -1.3602115   1.3602115
   2.3096354   2.3096354  -0.0000000        1.3602115   1.3602115  -1.3602115
 
                       Lattice parameters(A)       Cell Angles
                    a =    3.266318          alpha =   60.000000
                    b =    3.266318          beta  =   60.000000
                    c =    3.266318          gamma =   60.000000
 
                Current cell volume =   24.641112 A**3
 
------------------------------------------------------------------------ <-- SCF
SCF loop      Energy           Fermi           Energy gain       Timer   <-- SCF
                               energy          per atom          (sec)   <-- SCF
------------------------------------------------------------------------ <-- SCF
Initial  -2.47774489E+003  0.00000000E+000                        55.09  <-- SCF
      1  -2.47774779E+003  3.05793546E+000   1.44611444E-003      55.66  <-- SCF
      2  -2.47774779E+003  3.05793528E+000   6.77367345E-007      56.19  <-- SCF
      3  -2.47774679E+003  3.09019053E+000  -5.00853701E-004      56.78  <-- SCF
      4  -2.47774677E+003  3.08617881E+000  -8.80285456E-006      57.39  <-- SCF
      5  -2.47774677E+003  3.08602618E+000   6.04039338E-007      57.77  <-- SCF
      6  -2.47774677E+003  3.08622947E+000  -4.14918190E-008      58.19  <-- SCF
------------------------------------------------------------------------ <-- SCF
 
Final energy, E             =  -2477.746769401     eV
Final free energy (E-TS)    =  -2477.746769417     eV
(energies not corrected for finite basis set)
 
NB est. 0K energy (E-0.5TS)      =  -2477.746769409     eV
 
 
 ***************** Stress Tensor *****************
 *                                               *
 *          Cartesian components (GPa)           *
 * --------------------------------------------- *
 *             x             y             z     *
 *                                               *
 *  x     -0.062191      0.000000      0.000000  *
 *  y      0.000000     -0.062191      0.000000  *
 *  z      0.000000      0.000000     -0.062191  *
 *                                               *
 *  Pressure:    0.0622                          *
 *                                               *
 *************************************************
  
 +------------+-------------+-------------+-----------------+ <-- min BFGS
 |    Step    |   lambda    |   F.delta'  |    enthalpy     | <-- min BFGS
 +------------+-------------+-------------+-----------------+ <-- min BFGS
 |  previous  |    0.000000 |    0.001695 |    -2477.746405 | <-- min BFGS
 | trial step |    1.000000 |    0.001086 |    -2477.746496 | <-- min BFGS
 |  line step |    2.784505 |   -0.002099 |    -2477.746588 | <-- min BFGS
 |  quad step |    1.608603 |   -0.000610 |    -2477.746505 | <-- min BFGS
 +------------+-------------+-------------+-----------------+ <-- min BFGS
  
 BFGS: finished iteration     2 with enthalpy= -2.47774651E+003 eV
  
 +-----------+-----------------+-----------------+------------+-----+ <-- BFGS
 | Parameter |      value      |    tolerance    |    units   | OK? | <-- BFGS
 +-----------+-----------------+-----------------+------------+-----+ <-- BFGS
 |  dE/ion   |   4.995166E-005 |   1.000000E-005 |         eV | No  | <-- BFGS
 |   Smax    |   6.219084E-002 |   5.000000E-002 |        GPa | No  | <-- BFGS
 +-----------+-----------------+-----------------+------------+-----+ <-- BFGS
  

================================================================================
 Starting BFGS iteration          3 ...
================================================================================
  
 +------------+-------------+-------------+-----------------+ <-- min BFGS
 |    Step    |   lambda    |   F.delta'  |    enthalpy     | <-- min BFGS
 +------------+-------------+-------------+-----------------+ <-- min BFGS
 |  previous  |    0.000000 |    0.000610 |    -2477.746505 | <-- min BFGS
 +------------+-------------+-------------+-----------------+ <-- min BFGS
  

--------------------------------------------------------------------------------
 BFGS: starting iteration         3 with trial guess (lambda=  1.000000)
--------------------------------------------------------------------------------
 
                           -------------------------------
                                      Unit Cell
                           -------------------------------
        Real Lattice(A)              Reciprocal Lattice(1/A)
   0.0000000   2.3100203   2.3100203       -1.3599849   1.3599849   1.3599849
   2.3100203   0.0000000   2.3100203        1.3599849  -1.3599849   1.3599849
   2.3100203   2.3100203  -0.0000000        1.3599849   1.3599849  -1.3599849
 
                       Lattice parameters(A)       Cell Angles
                    a =    3.266862          alpha =   60.000000
                    b =    3.266862          beta  =   60.000000
                    c =    3.266862          gamma =   60.000000
 
                Current cell volume =   24.653431 A**3
 
------------------------------------------------------------------------ <-- SCF
SCF loop      Energy           Fermi           Energy gain       Timer   <-- SCF
                               energy          per atom          (sec)   <-- SCF
------------------------------------------------------------------------ <-- SCF
Initial  -2.47774639E+003  0.00000000E+000                        58.84  <-- SCF
      1  -2.47774678E+003  3.07054244E+000   1.96646259E-004      59.36  <-- SCF
      2  -2.47774678E+003  3.07054242E+000   7.21143576E-008      59.73  <-- SCF
      3  -2.47774665E+003  3.08216627E+000  -6.51591377E-005      60.28  <-- SCF
      4  -2.47774665E+003  3.08072949E+000  -1.17375931E-006      60.78  <-- SCF
      5  -2.47774665E+003  3.08067508E+000   8.73370733E-008      61.19  <-- SCF
      6  -2.47774665E+003  3.08073831E+000  -4.57346590E-009      61.61  <-- SCF
------------------------------------------------------------------------ <-- SCF
 
Final energy, E             =  -2477.746647526     eV
Final free energy (E-TS)    =  -2477.746647542     eV
(energies not corrected for finite basis set)
 
NB est. 0K energy (E-0.5TS)      =  -2477.746647534     eV
 
 
 ***************** Stress Tensor *****************
 *                                               *
 *          Cartesian components (GPa)           *
 * --------------------------------------------- *
 *             x             y             z     *
 *                                               *
 *  x      0.023975      0.000000      0.000000  *
 *  y      0.000000      0.023975      0.000000  *
 *  z      0.000000      0.000000      0.023975  *
 *                                               *
 *  Pressure:   -0.0240                          *
 *                                               *
 *************************************************
  
 +------------+-------------+-------------+-----------------+ <-- min BFGS
 |    Step    |   lambda    |   F.delta'  |    enthalpy     | <-- min BFGS
 +------------+-------------+-------------+-----------------+ <-- min BFGS
 |  previous  |    0.000000 |    0.000610 |    -2477.746505 | <-- min BFGS
 | trial step |    1.000000 |   -0.000235 |    -2477.746498 | <-- min BFGS
 +------------+-------------+-------------+-----------------+ <-- min BFGS
  
 BFGS: finished iteration     3 with enthalpy= -2.47774650E+003 eV
  
 +-----------+-----------------+-----------------+------------+-----+ <-- BFGS
 | Parameter |      value      |    tolerance    |    units   | OK? | <-- BFGS
 +-----------+-----------------+-----------------+------------+-----+ <-- BFGS
 |  dE/ion   |   3.567417E-006 |   1.000000E-005 |         eV | Yes | <-- BFGS
 |   Smax    |   2.397465E-002 |   5.000000E-002 |        GPa | Yes | <-- BFGS
 +-----------+-----------------+-----------------+------------+-----+ <-- BFGS
  
 BFGS: Geometry optimization completed successfully.

================================================================================
 BFGS: Final Configuration:
================================================================================
 
                           -------------------------------
                                      Unit Cell
                           -------------------------------
        Real Lattice(A)              Reciprocal Lattice(1/A)
   0.0000000   2.3100203   2.3100203       -1.3599849   1.3599849   1.3599849
   2.3100203   0.0000000   2.3100203        1.3599849  -1.3599849   1.3599849
   2.3100203   2.3100203  -0.0000000        1.3599849   1.3599849  -1.3599849
 
                       Lattice parameters(A)       Cell Angles
                    a =    3.266862          alpha =   60.000000
                    b =    3.266862          beta  =   60.000000
                    c =    3.266862          gamma =   60.000000
 
                Current cell volume =   24.653431 A**3
 
 BFGS: Final Enthalpy     = -2.47774650E+003 eV
 BFGS: Final bulk modulus =     165.94688 GPa
 
 ***************************** Symmetrised Forces *****************************
 *                                                                            *
 *                        Cartesian components (eV/A)                         *
 * -------------------------------------------------------------------------- *
 *                   x                    y                    z              *
 *                                                                            *
 * O         1      0.00000              0.00000              0.00000         *
 * Zn        1      0.00000              0.00000              0.00000         *
 *                                                                            *
 ******************************************************************************
 
 *********** Symmetrised Stress Tensor ***********
 *                                               *
 *          Cartesian components (GPa)           *
 * --------------------------------------------- *
 *             x             y             z     *
 *                                               *
 *  x      0.023975      0.000000      0.000000  *
 *  y      0.000000      0.023975      0.000000  *
 *  z      0.000000      0.000000      0.023975  *
 *                                               *
 *  Pressure:   -0.0240                          *
 *                                               *
 *************************************************

Writing analysis data to ZnO.castep_bin

Writing model to ZnO.check
 
 A BibTeX formatted list of references used in this run has been written to 
 ZnO.bib
 
Initialisation time =     13.94 s
Calculation time    =     48.14 s
Finalisation time   =      0.11 s
Total time          =     62.19 s
  
Overall parallel efficiency rating: Very good (87%)                             
  
Data was distributed by:-
k-point (2-way); efficiency rating: Very good (88%)                             
  
Parallel notes:
1) Calculation only took 62.2 s, so efficiency estimates may be inaccurate.     
