#BIOSYM hessian 1
@Type: Hessian Update
@Units
 distance: 	A
 energy: 	Kcal/Mol
#header
@natom 19

#label
L1      L2      L3      L4      L5      L6      L7      L8      L9      L10     L11     L12     L13     L14     L15     L16     L17     L18     L19

#element
Li Li Li Li Li Li Li Li Li Li Li Li Li Li Li Li Li Li Li

#matrix
57
 1.719700961826E+01
 4.913884523516E+00 8.630061314287E+00
 1.401550656030E+00 -4.541983424810E+00 1.860358630394E+01
 3.137034904643E+00 -1.069051306933E+00 -8.022833514832E-01 2.718650891427E+01
 3.619485990764E-01 1.715721559848E+00 3.240989927312E+00 6.134384871023E-02 1.740109202616E+01
 9.512009423236E-02 7.349985601507E-01 6.971106661020E-01 -2.024258877771E+01 -1.518633283323E+00 3.754443554168E+01
 3.441464938025E-01 2.188737854538E+00 -1.640878480230E+00 7.084664718703E-01 -2.050934902854E+00 7.513194995577E-01 2.404314730007E+01
 2.459735041930E+00 2.259762664582E+00 -2.759736411447E+00 3.494224729490E+00 -2.656684745301E-01 -9.827695931840E-01 -2.791918933641E+00 1.591577711985E+01
 7.969862378502E-01 -4.346345373267E+00 1.794267447228E+00 -1.823744903095E+00 1.820630288551E+00 2.534139377982E+00 -1.785159132545E+00 8.201599060655E+00 2.904722555661E+01
 -2.312162040774E+00 1.307201799081E+00 -5.852758610655E-01 1.936425511731E+00 3.760078852604E+00 -1.604390978967E+00 3.470285102702E-01 -1.261392984435E-02 -7.330188903907E-01 1.105437987501E+01
 6.293773987104E-01 -9.602327512677E-01 1.055081980567E+00 -9.217337313811E-02 9.046551416875E-01 -1.856907680740E+00 1.730322179284E+00 4.147770866073E-01 2.870482834625E+00 -4.483103580104E+00 1.968107150336E+01
 1.358815748019E+00 -3.485902901495E-01 2.090045624912E+00 2.275105721762E+00 1.661924385407E+00 -4.817859265461E+00 1.090457835437E+00 -8.841323919546E-01 -1.181135253357E+00 -1.287858849334E+00 5.957541137891E+00 2.662462531500E+01
 -1.850532608976E+00 9.160527461152E-02 -1.749639683018E+00 9.102559111051E-01 -1.877852252411E+00 1.159434454528E+00 -2.094705388434E+00 2.166312712427E-01 -1.680498647967E+00 -1.560389968062E+00 3.141505224157E+00 1.307546203102E+00 7.136759296415E+00
 2.073030471703E+00 1.395783751534E+00 -2.700746779832E+00 1.091948299757E+00 3.542770193946E-01 2.801200982571E+00 -2.704777096723E+00 -7.797908763503E-03 -1.359840024477E+00 -4.026015499431E+00 -8.105798841885E+00 -1.491980747815E+00 4.698337179274E+00 2.492287106227E+01
 -1.198306617101E+00 -4.883514454792E-01 3.656470971766E+00 4.036187908934E+00 -1.913041259860E+00 -2.865971774193E+00 -5.270055943128E-01 -9.104199071725E-01 -1.159966484136E+00 -6.573478558329E-01 -2.628872390391E+00 1.985858403101E-01 -1.570378277856E+00 -1.055279223072E+01 2.717857210533E+01
 -2.925479475512E+00 -8.385271818764E-01 5.946311689841E+00 -6.084518335884E+00 7.345991711606E+00 1.779900178521E+00 -7.020668925666E-01 -2.639479395328E+00 1.602681233502E+00 1.453055911514E+00 -1.603174038902E+00 6.296240204721E-01 -1.416333087359E+00 1.130656348194E-01 -2.584564584442E+00 2.202963996909E+01
 -1.595512018764E+00 -2.858919441827E+00 -3.998040741024E+00 3.445387104422E+00 -4.447743342929E-01 -3.768351258200E+00 -1.688942347706E+00 4.529773192192E-01 -2.101145468486E-01 9.338595258357E-01 5.789726066825E-01 3.948372548916E+00 -1.490225442307E+00 -3.750783042947E-01 -1.874863358612E+00 3.399571463631E+00 2.195928446654E+01
 3.580326221253E+00 3.423594753679E+00 -1.137959938333E+01 -6.359077445412E-02 -1.834156566076E+00 -2.067233732929E-02 4.551118438822E+00 1.805046127062E+00 -2.805120875488E+00 1.528050483945E+00 -2.349786136926E+00 7.453046286574E-01 -2.797229470484E+00 8.583713842946E-01 -1.000894526085E+01 -2.552554823676E+00 2.780623867632E+00 2.582421509435E+01
 1.759494319607E+00 -5.163753995586E-01 3.436166583516E+00 -9.593678812546E+00 -2.510818011285E+00 1.270405971843E+01 -2.293495637970E+00 -3.687532652858E+00 3.676530134578E+00 7.407163463481E-01 -2.314929592497E+00 -3.838287722293E+00 1.722105593647E+00 2.052170986567E+00 2.540771616994E-01 1.371038606816E+00 4.264856734143E+00 -1.589349558239E+00 6.144041019468E+01
 -1.211443530042E+00 2.095423489455E+00 2.335722665265E+00 -4.175714980354E+00 9.355115595179E+00 8.735677508258E+00 3.385664311611E+00 3.322924163459E+00 -5.728574005729E-01 -1.657792924920E-01 1.212536585704E-01 -2.266045944845E+00 -1.223351510686E-02 -1.324410516992E+00 -4.286068722707E-01 3.047321921295E+00 2.042749839964E+00 -5.065813444600E-01 3.700414438027E+00 4.234440754285E+01
 8.004899130456E-01 1.831388004833E+00 1.008131651604E+00 1.535292189470E+01 7.407786216937E+00 -3.497788843108E+01 -9.231621171733E-01 1.870018119099E+00 -3.336418864330E+00 3.875934210190E+00 5.415506947739E-01 4.002154296434E-01 -1.953744278550E+00 -5.790905253209E+00 5.153554977487E+00 5.478497194329E+00 1.700184925959E+00 7.634271692872E-01 6.247453337421E+00 -3.792402923483E+00 6.020899490145E+01
 -2.529875792129E+00 -3.095197699692E+00 1.308015347190E+00 -5.748696021006E+00 -9.606986107092E-01 9.979064973902E-01 -3.947611198523E+00 2.576699958342E+00 7.068517240254E+00 -2.336386091190E+00 2.089439292017E+00 -3.350278546554E+00 1.361135023918E+00 6.855802739671E-01 4.008946415553E-02 2.402462830411E+00 -1.545304085256E+00 -3.484851985633E+00 2.146456360345E+00 1.591396779080E+00 1.209190911460E+00 2.033117697067E+01
 -4.093167185142E-01 -3.363266262203E+00 1.731048275871E+00 2.404523065588E-01 -7.174051095984E+00 2.225301781427E+00 -1.072988708946E+00 -1.533236095114E+00 1.275069994423E+00 -1.120470679400E-01 -4.594311371437E+00 -4.000006200168E+00 -5.044371672881E-01 -2.535313741671E+00 2.266597897066E+00 3.133068654230E+00 -1.531389690284E+00 2.276777816956E+00 -8.958702298870E-01 -1.221983957518E+00 -6.034054149529E+00 -4.267083035684E-01 1.979063356388E+01
 -3.481880767075E-01 2.580158846654E-01 2.016460250494E-01 2.920730231624E+00 -1.582332212257E+00 1.484202751422E+00 4.305158150221E+00 -1.708734279301E+00 -7.729835010943E+00 -4.938922928279E+00 3.525852187891E+00 -8.130664934401E+00 -8.895985599950E-02 4.789189961732E-01 -1.567319974005E-02 -1.424322746004E+00 1.335102308371E+00 2.656145811447E+00 -4.390199855770E+00 2.310330746753E+00 -1.515118555757E+00 -1.743322531954E+00 -2.603638303711E+00 1.828586798000E+01
 -7.455039949462E-02 -1.423918193753E+00 9.532688461461E-01 -5.426789693140E-01 3.704707465283E-01 7.165077792444E+00 -1.580412975794E-02 1.666879027567E+00 4.704166026551E-01 -4.993930888733E+00 -5.607479856816E-01 3.186616918515E-01 -3.571236827895E+00 1.119504597132E+00 5.987067664266E-01 -4.010167579200E-01 -8.132241025823E-01 -3.014040227279E+00 -2.421570563482E+00 -3.597485803049E-01 -1.113570385239E+01 1.490716082201E+00 -2.195120885521E+00 -2.102287870672E-01 3.465728393294E+01
 -3.157685017586E+00 -2.601416594887E-01 -2.523840388230E-02 8.078125822732E-01 2.381204991158E+01 7.045434206887E+00 2.450448155910E+00 2.935434644787E+00 4.411090137737E+00 5.465447213413E+00 -3.119437783504E+00 -2.972668455505E+00 -4.294936141012E+00 -5.817190336377E+00 -4.612109566228E-01 1.196555166157E+01 9.357876424239E+00 1.415631724780E+00 3.873552852862E+00 3.694546861547E+01 4.420314825713E+00 3.398712775381E+00 -1.304035601356E+00 7.026081525768E-01 -4.606108055849E+00 8.940025177072E+01
 -2.007717114676E+00 -2.755307429159E-02 -1.105650733523E+00 1.138272048500E+00 1.085293663035E+00 6.331432589056E+00 1.774055238420E+00 2.662536655936E+00 1.096605280641E+00 2.600107379270E+00 -2.203459320129E+00 -1.461592881431E+00 1.379428601202E+00 3.048913179903E-01 7.220738365446E-01 1.567641053174E+00 -7.177460019845E-01 2.190039712862E+00 1.601492288863E+00 3.207812321474E+00 -7.196624040154E+00 1.554372077834E+00 2.595253245839E-01 -1.095489483520E+00 5.114047131991E+00 4.466414045720E+00 2.482480044249E+01
 -4.140358944165E+00 1.233668918559E+00 -3.968042494500E+00 9.062157289373E+00 -1.650947921387E+00 -1.458371049202E+01 -3.195962096535E+00 -1.574154291934E+00 -7.334449025865E-01 4.410148388101E-01 1.629025610793E+00 -2.207088560380E-01 -2.769737966488E+00 -2.138239857395E+00 4.984396487907E-01 -6.621607352914E+00 -9.764752988953E-01 -2.393658130353E-01 -9.189624335865E+00 -2.537134395697E+00 1.244002896000E+01 9.096702693206E-01 -2.757068308039E+00 3.275845616444E+00 -2.967297235221E+00 -8.915748514453E+00 -4.626405231528E+00 4.510115908720E+01
 1.304241552465E+00 -2.328357163846E-01 3.284006704493E+00 -1.302435295279E+01 -5.193703085376E+00 2.047020097347E+01 1.333571185623E+00 2.261058098978E-01 -1.864284858141E+00 -1.040262860908E+00 -1.457686113998E+00 -3.477893467094E+00 -1.783443541016E-01 1.923627457357E+00 -1.418386869620E+00 -5.437590749833E+00 -2.516753075961E+00 -1.349676170217E+00 7.863041477757E+00 -3.723768809982E+00 -2.683990842937E+01 -2.375428014188E+00 -1.486028955289E+00 1.002984504236E+00 4.027423866017E+00 -1.153313143328E+01 -3.611851949444E-01 -3.743914088303E+01 7.537062060248E+01
 -5.781828319630E+00 -7.060480859050E-02 -6.119274428643E+00 -6.204759475186E+00 -3.510717482583E+00 7.338009418419E+00 -3.312550393680E-01 -1.423324958525E+00 7.936590631713E-01 1.387343511752E+00 4.484201827150E-01 1.415870371169E+00 1.399513497940E+00 -6.050377008610E-01 -3.803110947767E+00 -6.036936887290E-02 6.652200355310E-01 6.513698385104E-01 5.133982352069E+00 -9.242107458493E-01 -1.127379565434E+01 5.762088983689E-01 7.898559980066E-01 -2.013333213602E+00 7.822740573161E-01 -4.252857990013E+00 -3.451753176886E+00 -1.205150432364E+01 2.113712986533E+01 2.950453714762E+01
 -5.263324202827E+00 -1.417608166055E+00 -3.941177735152E+00 -4.007180150540E+00 -1.548771214923E+00 6.075563176855E+00 -2.738188462145E+00 4.603221868099E+00 -1.960700335879E+00 1.072060298015E+00 -1.936105086320E+00 -4.568585774591E+00 3.024861530547E-01 -1.623304576299E-01 -3.933411548526E+00 -2.166542279998E-02 3.978969389765E+00 3.873007611683E-01 -2.049881618106E+01 -8.684177769976E+00 -4.387479686803E+00 5.720382678191E+00 3.089428601554E+00 3.509664037252E+00 2.249201356214E+00 -2.073108276434E+00 5.105107636251E+00 -7.312102963582E+00 1.547273340546E+01 5.753567395188E+00 4.597187398660E+01
 -5.463315741083E+00 -2.889969548825E+00 -1.065727162153E+00 9.115065169151E-01 2.497695303997E+00 6.489155470085E-01 4.500701180492E+00 -3.806252967179E+00 1.080649549512E+00 -4.983691050226E-01 7.493726175067E-01 4.037819473124E+00 -6.149415961290E-02 -2.321481708652E+00 1.127930095844E+00 4.034845062772E+00 3.488642693046E+00 2.692658401966E+00 3.632040374462E+00 3.564793587520E+00 -4.946664977070E+00 -3.086306334032E+00 4.803868685505E+00 1.362273634100E-01 -1.104117509459E+00 8.139337006577E+00 -2.458739300960E+00 -2.391072042120E+00 -1.001792101678E+00 5.820454689423E+00 -6.252955714446E+00 2.469785699398E+01
 -1.219454985890E+00 2.672288217037E+00 -2.821283558966E+00 -1.700351124884E+00 4.190880820028E+00 5.700341823763E+00 -4.451593214417E+00 2.043240972586E+00 2.784563700696E+00 2.883221970085E+00 -3.620746080717E+00 -3.398092805658E+00 -1.503486188758E-01 3.234145780233E+00 3.782290941673E+00 1.631521596208E+00 8.479966357835E-01 -4.094543143952E+00 -9.819279032475E+00 5.599657906080E+00 8.080729341151E-01 -5.010660272133E-01 -2.510292334328E+00 -6.106180000430E+00 6.082959633817E+00 9.862242931910E+00 4.455314667231E+00 1.497339367993E+01 -2.058481108529E+01 -1.447295936682E+01 -2.920618900016E+00 -9.596785943908E+00 5.845069945864E+01
 -4.266602029628E-01 -2.238334118930E+00 1.386675993597E+00 1.165030789486E+00 4.922147298939E-01 9.248595170917E-02 -5.514552362482E+00 -1.880111973113E+00 -3.924568534001E+00 -2.182936536253E+00 -2.999009314585E+00 1.113221513167E+00 -6.886539119305E-01 3.409945812638E+00 -2.005853326756E+00 -5.950719101909E-01 -1.146912032045E+00 -2.643102913689E+00 3.241330209345E+00 -1.632777766220E+00 2.587486728889E+00 -9.914163367907E+00 -8.971484070935E-01 -8.441470528177E-01 -1.779617399242E+00 -2.712433052002E+00 -1.817414652832E+00 -2.561082186243E+00 8.460257898480E+00 2.943215068232E+00 -3.438312529012E+00 -6.159160830322E-01 -4.768777953227E+00 2.174401062280E+01
 -3.792661128985E-01 -1.432963027784E+00 1.183294301983E+00 -1.760772846269E+00 1.171680825992E+00 -5.549800069842E-01 -6.494542245312E-01 -1.169772826095E+00 8.755932881193E-01 1.961336518273E-01 -2.587354481359E+00 -5.447592699669E-01 4.991159858784E-01 -6.657003160262E-01 -3.841073998103E-01 4.858638272913E-01 -2.846333735787E+00 3.811431439331E-01 1.483616264583E+00 4.048437494135E-01 5.376514478330E+00 -1.041790831561E+00 5.257314328785E-01 -1.049834105361E+00 9.249077390694E-01 -5.768929596830E+00 4.031197260558E+00 6.807434794371E-01 -4.993414670030E-01 -1.719920773835E+00 4.845578156758E+00 3.083362505333E-01 -6.707058452697E-01 1.360567178034E+00 1.320538087953E+01
 -2.605104549322E+00 8.276480272196E-01 -1.343329956334E+00 1.661856361443E+00 2.506382934798E+00 -1.262858937537E+00 -2.324575986425E+00 7.191126533686E-01 -8.169696525015E+00 7.990347568945E-01 1.289236518809E+00 -1.026962291779E+00 6.549274436725E-01 -1.008817533090E+00 7.777932400226E-03 2.558963005849E+00 -4.897181932620E-01 2.654327798904E-01 1.008394268424E+00 1.377668205949E+00 5.513874214886E+00 5.658725769194E-01 2.246211047901E+00 1.218357720220E+00 -5.360917842421E-01 7.687661948427E+00 -3.466638719364E+00 2.112561873558E+00 -3.519643099865E+00 -1.204568153164E+00 -1.717159437007E+00 -6.420920037642E-01 8.555122458960E-01 3.828204531973E+00 -5.374994805732E+00 2.042551230705E+01
 9.851939785509E-01 8.092016376754E-01 -3.541875110292E-01 2.140563325200E-01 -1.412855919778E+00 2.051895800247E+00 2.139452600584E+00 2.439360422317E+00 -3.771606974516E+00 -1.003557775462E+00 1.388128738800E+00 -6.383058926514E-01 5.776960000882E-02 -1.451244777141E+00 3.663737280335E-01 -1.504865081090E+00 -5.109664136099E-01 1.942465758235E-02 -1.638716015744E+01 1.401266676829E+01 -9.214869748308E+00 -6.759004359733E-01 1.813398522557E-01 3.724276253955E+00 -4.179865871623E-01 4.056090756183E-02 -1.394036325459E+00 2.719757350950E+00 -1.905291619357E+00 -6.868949670682E-01 -1.378888111784E+00 -5.363632307526E-01 1.175017193344E+00 -6.176331858333E-01 -6.353662289013E-01 -5.132706693266E-02 1.655319717345E+01
 -4.678277483834E-01 -6.579400374505E-02 2.217813661454E+00 5.994356893891E-01 3.689322074272E-01 -7.294990537149E-01 -1.747315372876E+00 -1.999994290825E+00 4.714365809622E-01 7.856692232931E-01 -1.020914259043E+00 8.674248423618E-01 8.102802927558E-01 1.224679759835E+00 5.758181784458E-01 1.546612664476E+00 -8.477440765971E-01 -1.143579032971E+00 1.227894572980E+01 -1.291104921071E+01 4.941600266025E+00 -1.391656138988E+00 -1.162820246810E-01 -3.748309430577E-01 -3.059161952004E+00 -1.054903310480E+00 -3.838772799203E-02 -6.137287613721E-02 8.091667690594E-01 5.788937787989E-01 6.491213037839E-01 -3.355586154719E-01 -1.379441189493E+00 -9.313833566222E-01 8.858778851694E-01 -2.758205383485E-01 -1.245216459611E+01 1.365030181109E+01
 6.800058330513E-01 2.855919656856E-02 -1.498536158411E+00 6.910001549688E-02 -1.167174456027E+00 1.810841224006E-01 2.462381206004E+00 -5.642840720233E-01 -1.618523768251E+00 -1.561417082563E-01 -1.478836039391E-01 -1.168110759754E+00 -1.824828860792E-01 -2.442340457592E-01 -2.695193260153E-01 -1.517239046120E+00 9.237973145361E-01 1.019460734292E+00 -5.902619767829E+00 6.131992860799E+00 -3.453671337613E+00 1.027206998768E-01 4.460008488247E-01 4.909989963640E-01 3.961273523795E-02 1.219631675587E+00 4.694625681865E-01 -8.561231063477E-01 7.108242594425E-01 -1.383508216822E+00 -8.485124894882E-01 4.642291307061E-01 1.224744290276E+00 -7.225809154883E-01 -4.510073569165E-01 -9.621310439369E-01 6.316691097638E+00 -6.360506073616E+00 4.079452909257E+00
 1.594323953597E+00 -2.027268377008E+00 -3.992265868773E+00 2.219670151358E+00 -2.906545201365E-01 -1.038899215213E+00 -2.925157391063E-01 -4.812600165923E-01 1.565536686424E+00 -1.171105025837E-01 5.854532297703E-04 4.269189765115E-01 -6.960751045885E-01 3.480637453712E-04 -2.931837117270E-01 -7.310427599634E-01 6.950813674516E-04 3.284786017234E+00 -8.369275790159E+00 -8.325258306044E+00 -4.449021700350E+00 2.666967001309E-01 6.349598689340E-01 -2.388039237551E+00 1.150929889520E+00 7.990217737081E-01 1.179742030544E+00 8.406781408469E-01 -3.618605064251E+00 -1.861211468190E+00 -5.837295415110E-01 2.682897935302E-01 3.794976948286E+00 -7.931019086227E-02 -8.380609193070E-02 -5.765395141866E-01 5.213127945007E-01 6.834806248910E-01 5.356421234388E-01 1.024617592382E+01
 1.463624096609E-01 -2.066907259281E+00 -1.873138477666E+00 4.386252359664E-01 6.275666188492E-02 -5.266364779379E-01 -2.467829584508E+00 -1.175590267310E+00 9.341843661977E-01 -1.158926830154E+00 5.808972226406E-01 1.107919550289E+00 7.960446884360E-02 2.329218092579E-01 -1.093022266450E-01 7.860051868906E-01 -1.039601907445E+00 -2.883534654547E-01 -8.796952416813E+00 -8.748818741353E+00 -5.421329362463E+00 2.599070842473E-01 -4.479381525092E-01 -1.481768017698E+00 9.695928047194E-01 -6.688272596392E-01 -6.300634147203E-01 8.847930763776E-01 -1.442478174976E+00 8.101462719242E-02 1.978443204241E-01 4.044748484657E-01 1.765291145460E+00 1.107628902728E+00 3.640892570438E-01 -1.093099813031E+00 3.301031670271E-01 1.899051828791E+00 -3.725964703541E-01 8.799561505525E+00 9.197927113550E+00
 2.088555801903E+00 -1.036120805167E+00 -1.652314252647E+00 -2.022724047667E-02 -6.162828024954E-01 -1.338225873978E+00 -1.018567301881E+00 1.391266783561E-01 1.025664362906E+00 -6.083930090463E-01 8.705243831241E-01 1.290486653447E+00 -3.939965198950E-01 3.241742334789E-01 -6.991048822190E-01 -1.017990767967E+00 8.531916503221E-01 -6.363095797795E-02 -4.531002373480E+00 -5.147041573825E+00 -2.480458705482E+00 -3.239243620623E-02 -1.902149134292E+00 -2.455659133301E+00 -5.883166845709E-01 -1.569048955671E+00 -1.646406455052E+00 -6.821168505535E-02 4.270539222220E-01 6.461042610112E-01 -1.048667723932E+00 -1.213850752003E+00 2.894860184768E+00 5.328978316448E-01 4.304285094283E-01 -2.675807489193E+00 1.139500254778E+00 8.859297134102E-01 3.996255062206E-01 6.705294365444E+00 6.564408275251E+00 6.514658360856E+00
 1.031617000151E+00 4.325079545878E+00 2.435227044969E-01 -2.011496122763E+01 -3.732250626412E+00 1.016556153282E+01 1.147979796099E+00 1.095563903012E-01 -9.915148713579E-01 -3.767807849789E+00 1.531751256244E+00 1.518662963318E+00 1.384399608544E-01 -3.271466935825E+00 3.629145396121E+00 -6.252554527886E+00 -5.318181832479E+00 -1.496971558446E+00 -3.348513954341E+00 -2.939819166719E+00 -1.576203222103E+01 -4.887895548658E+00 3.507707569331E+00 -6.785029920745E-01 -1.746703048838E+01 -7.653315431133E+00 -1.149119458470E+01 -1.861068924699E+01 3.167109196046E+01 1.221224634309E+01 1.168408205638E+01 2.341567824388E+00 -1.602182014866E+01 3.842812992728E+00 -3.689573750758E+00 -2.557581478685E+00 -3.921396801821E-01 1.845099425699E+00 -3.419544928392E-01 -5.506288461809E+00 -2.194303356899E+00 -3.156926607336E-01 6.036088462788E+01
 6.835019857929E-01 2.553280592245E+00 -2.146022584701E+00 1.130549910647E+01 -4.204635406281E+01 -2.891980550185E+01 6.697442409218E-01 -1.612734351665E+00 -5.689822398584E+00 -2.589819221835E+00 -1.025773241173E+00 -2.683593308519E+00 -1.542797324445E+00 -1.003259511473E+01 1.662907760633E+01 -2.281401239241E+01 -2.171591672280E+01 -7.473402508632E+00 -1.942698313222E+01 -6.351781600043E+01 2.101377427585E+01 9.941887635220E-01 1.146412823398E+00 -5.234863981600E-01 5.531550794310E+00 -1.260694055004E+02 -1.146837503812E+01 5.783403748092E+01 -4.297465597452E+01 -2.011893964868E+01 -1.102664618286E+01 -2.165953469640E+01 1.270351484265E+01 -1.412784357902E+00 -3.215872614155E+00 -6.520747341585E-01 8.234380205495E-01 -1.192887350893E+00 -7.833900016001E-01 1.127280885987E+00 9.353058820064E-01 -9.792162624359E-01 -1.287979169305E+01 3.098216197010E+02
 1.887480794712E+00 3.348664135288E+00 -3.269686842386E+00 -1.736457536920E-01 -2.942668293025E+00 -1.385553207001E+01 -1.571473127782E+00 -2.297741949334E+00 -1.920122035778E+00 -9.386024952621E-02 -4.915115115620E+00 -8.588722852385E+00 4.962414082447E+00 1.447327984921E+01 -1.803461129494E+01 -5.244512116678E+00 -8.540250596033E+00 2.130242399279E-01 -9.274004756175E+00 -1.239285568983E+01 -1.812722434030E+00 -2.955239490759E+00 3.630740715721E+00 -6.374330662910E-01 -1.400855035653E+01 -2.722384719587E+01 -1.250500904852E+01 3.963493014174E+00 6.631961194651E+00 2.316106372689E+00 5.499011743998E+00 -1.217882146918E+00 -3.352660443729E+01 4.240492523454E+00 2.610844743582E+00 -3.471973638694E+00 1.943740594959E+00 -5.796366807690E-01 2.472123835476E-01 -1.184284469882E+00 8.865381730142E-01 -9.785208595597E-01 1.877734031245E+01 2.431636355250E+01 9.354935005891E+01
 6.554596841653E-01 2.402992350371E-01 4.218347393376E-01 -1.751430083193E-01 -1.177000320979E+00 4.019814514094E-01 1.427304834548E+00 -1.665649111262E+00 -1.312740163762E+00 -5.055508742836E-01 7.552458708566E-01 5.220754200615E-01 -5.019476498576E-01 -1.625854943673E+00 8.651714088095E-01 -8.193362903332E-01 3.476037661560E-01 4.011925438729E-01 2.484283826608E+00 -3.401676531923E-01 -5.210831152836E-01 -1.547054654255E-01 -3.383864543916E-01 7.408134599466E-01 9.066388417605E-01 -5.779514264683E-02 -1.880661688077E-01 6.505049605538E-01 7.809235997169E-01 -9.671116952914E-01 -2.059907466974E+00 9.858511030983E-03 -6.350412871752E-01 -9.783198305402E-01 -9.192208232173E-01 -4.831077753887E-01 -7.041437200666E-01 6.844390640797E-01 1.323709498642E-01 -1.857739825394E-01 -3.364242725874E-01 -2.134249354663E-01 -7.381512016149E-01 3.110278820892E+00 -9.408115433186E-01 1.158666676831E+00
 2.878188582743E+00 -9.432189395018E-01 2.447195285619E+00 -1.072515610065E+00 1.361329499109E+00 -3.669017880381E-01 -3.070554289082E+00 -1.071318273491E+01 -6.154627971793E+00 -3.659992745306E-01 -1.275281579791E+00 1.454802821585E+00 2.510462845299E-02 1.407880125727E+00 3.094315566822E-01 8.075207831683E-01 -3.324542177630E+00 1.117851677340E+00 1.427133674343E+00 -2.912487150994E+00 1.881764109168E+00 4.661278607264E-01 1.523998492654E+00 -5.611335045395E-01 -3.609507433854E-01 -3.690411693927E+00 -1.028409636425E+00 -9.047318477489E-01 5.671670841666E-01 2.157797013343E-01 -2.089289222663E+00 9.198911306999E-01 -1.913114135708E+00 1.920806009007E+00 2.491280231771E+00 -1.823352648115E+00 -2.050644434316E+00 4.781521936527E-01 6.409077889327E-01 7.631827286060E-01 9.090467088238E-01 -6.303867217637E-03 -1.931558521223E+00 5.668070454879E-01 9.273030946682E-02 9.018107433251E-01 1.228173717632E+01
 -1.989349141708E+00 -1.387092344578E+00 2.370124667691E-02 2.635064957725E+00 -5.942198684286E+00 -3.801530471396E+00 1.138396250700E+00 -7.201928744371E+00 -6.203605858813E+00 -2.139331216845E+00 1.137462720272E+00 1.712763544145E+00 1.057740188577E+00 -6.327223475640E-01 1.291666953514E+00 -4.308869918829E+00 5.461774244305E+00 -2.969408756297E+00 3.938840194061E+00 -1.004522005750E+00 -7.123986204804E+00 -1.515031982170E+00 2.440782554488E+00 -1.155893104919E-02 4.244185235795E+00 -2.768158459500E+00 1.175338752949E+00 1.236806220470E+00 3.117093444919E+00 1.139982097682E+00 -7.653202746432E+00 3.242341451403E+00 3.714311573742E+00 -2.197519597445E+00 -3.997209138084E+00 -1.235410996000E+00 -2.787426178074E+00 1.558673672757E+00 1.368851478095E+00 -9.985786246643E-01 -6.055642439976E-01 -9.463441614763E-02 3.385359924629E-02 4.935360092432E+00 -4.715558338363E+00 2.461873846105E+00 3.230741273267E+00 2.051324476764E+01
 -8.548060284153E+00 -2.304555889676E+00 1.416996159141E+00 -7.766161660762E-01 1.645535798310E+00 -2.368764627909E+00 7.241134738621E-01 -1.049151203990E+00 1.802728443334E+00 6.546965234012E-01 2.160002127044E-01 2.879148707223E+00 1.756243538156E+00 -6.862145986391E-01 1.713747818091E+00 6.393002742433E-01 -1.847223382493E+00 8.635643706200E-01 -2.063544211997E+00 2.068100428896E+00 1.837443633376E+00 -1.483189735997E+00 -5.115653745072E-01 -3.709323516712E+00 -1.755998920271E+00 -1.684138517128E+00 -1.762837618092E+00 -1.193343135021E-01 1.503349750881E+00 5.413423664402E-01 -4.505554488568E+00 9.959264484144E+00 7.475478806494E+00 1.826182726252E-01 3.818707940816E-02 1.371954089810E+00 -4.186993783969E-01 -4.342932879300E-01 3.708904518189E-01 -9.441360197770E-01 -8.551158218933E-01 -1.065191846510E+00 2.385119118220E+00 2.023148142047E+00 -1.763965789257E+00 3.171653831706E-03 -5.872509749012E-01 2.303449171920E+00 1.855700542600E+01
 -2.346813343014E+00 -1.156829958620E+00 8.891021247958E-01 -2.534243658988E+00 -2.325314618399E+00 2.296560518149E+00 -3.616464839772E-01 -6.801308905387E-01 -1.911367232047E-01 8.137437887933E-01 -2.692426609637E-01 -1.687130306648E+00 -8.489021866697E-01 5.496400298165E-01 -1.304191270601E+00 -1.313494609896E+00 2.018087392779E+00 6.045917928766E-02 -1.282113449164E-01 -2.154887739062E-01 -9.326431056407E-01 1.643919426518E+00 -1.768526614328E+00 2.042052482983E-02 -3.868055658335E-01 6.231297182312E-01 2.729374837472E-01 -5.225823983738E-01 4.440291313108E-01 2.083650472788E+00 8.084818502257E+00 -6.489116235981E+00 -7.594415783292E+00 -7.040065243188E-02 -2.394511397158E+00 -1.189993062443E+00 1.115694070567E+00 -8.690002875446E-02 2.792200059516E-01 3.591667506668E-01 9.466635162522E-01 1.608467401063E+00 1.549057841378E+00 -2.507458307854E-01 3.242822273059E-01 9.111292846607E-02 -3.151988684279E-01 -2.699140149338E+00 -3.653042798485E+00 1.976677479573E+01
 2.988110058336E+00 -1.790290426118E-02 -1.513271234523E-01 -3.555145347084E-01 -1.140727064629E+00 2.082098295579E+00 -5.197085021823E-02 -4.862427024110E-01 -9.529716219938E-01 1.288063728173E-01 6.835891932564E-01 -2.771600184789E+00 -1.281933921682E+00 -6.069837709578E-01 -3.305577177325E+00 -1.556219000018E+00 2.402300266377E+00 3.493623119972E-02 1.084754728730E+00 -6.948173856133E-01 -3.390470131284E+00 -3.732095157469E-01 -2.197003174396E+00 2.124871031881E+00 1.725479252287E+00 -9.583813604030E-01 1.808969205254E+00 -7.664140998959E-01 1.263489040417E-03 -1.201166314291E+00 7.132482746486E+00 -7.874251151882E+00 -1.164250079603E+01 -1.305005200540E+00 4.715407616426E-01 -1.513062228533E+00 1.782934093919E+00 4.382383822670E-01 1.366101789545E+00 8.354124098712E-01 9.771673697294E-01 1.796821197466E+00 7.778386884153E-01 -9.447591600352E-01 1.540836992325E+00 3.874862387403E-01 5.315046072247E-01 -2.338809180288E+00 -9.282018427488E+00 1.148876711052E+01 2.477997092641E+01
 8.604035924375E-01 8.255484559092E-01 3.207779511638E-01 6.828636676207E-01 2.201263458058E+00 -3.027278148455E+00 -1.142951956182E+00 -8.910885192013E-01 -9.829015295446E-01 1.137566028809E+00 7.732993526407E-01 3.097263976612E-01 7.363531528731E-01 2.571182457482E-01 -1.316207161518E-01 6.697015488567E-01 -8.117391440332E-01 3.336286912850E+00 -1.086323029468E+00 2.611030403054E+00 -2.121101905314E+00 -2.391232661834E+00 5.382600870716E-01 1.895275351672E+00 -5.789107420986E+00 5.956100992489E+00 -2.245377378201E-01 -1.010987820781E+00 -7.839813917841E+00 -2.205760335741E+00 -1.318567615459E+01 2.518376588281E+00 -2.869812223546E+00 -1.091046978612E+00 -2.476314430359E+00 -1.793848553292E+00 8.040671037135E-01 1.369405740029E-01 1.133061861520E-01 7.401927387361E-01 1.494645875242E+00 5.401849395003E-01 4.388203105997E+00 -8.559000846249E+00 -4.105466160171E+00 -8.287324705711E-01 1.064103885315E+00 3.990189137234E+00 -3.240478715533E+00 -1.333800495788E+00 -4.916715768615E-01 2.053939837315E+01
 -2.074531970120E-01 -1.748714063715E+00 -2.679234748578E-01 6.858576584888E-01 -2.507521937139E+00 -3.114585321091E+00 6.319714492674E-01 -5.546671550344E-01 -5.812124992608E-01 4.337146566265E-01 4.526319133345E-01 1.376248439090E+00 3.237291066726E-01 4.395955898152E-01 9.649203531018E-01 -3.343749409590E+00 -1.778058161736E+00 -1.386393382470E+00 4.474392273356E-01 -6.022515026653E+00 1.310492968638E+00 -3.091711169224E-01 4.663316812804E-01 3.154189776048E-01 3.531717950773E-01 -1.096443105309E+01 9.761204232690E-01 1.120558107547E+00 -4.241842929867E+00 1.491655189070E-01 -2.873377279701E+00 -3.508494510678E-01 -1.903281973182E+00 2.697343913064E-01 2.026847804665E+00 3.111877979670E-01 1.596988839421E-01 -5.645473688484E-01 1.288984571062E-01 7.983043125321E-01 2.752775212720E-01 3.005870727524E-01 -2.929635027715E-01 1.919797218759E+01 2.090584001203E+00 -6.682934291297E-01 -2.302830213164E-02 -4.560153163889E-01 -2.669470963847E+00 -2.138050628064E+00 -3.251013342651E+00 1.917934967596E+00 1.100594984583E+01
 -4.568163234651E-01 -6.207729428643E-01 1.663127492106E+00 8.082108687612E-01 1.823704707061E+00 -1.786980644842E+00 -3.853658793489E+00 2.511806767473E-01 -1.095396885650E+00 -6.604637098695E-01 -7.688554932889E-01 -1.857229731361E+00 1.175929540343E+00 2.113167269409E+00 -3.950010901543E-01 7.819779584378E-02 -7.773098424678E-01 -3.224053862256E+00 -2.912382992794E+00 7.540521380232E-01 3.055896033881E+00 1.726580976108E+00 -1.776725258495E+00 2.116905047112E+00 1.903231693984E+00 1.602658859928E+00 -1.092966823303E+01 2.080701666362E-02 1.595909752675E+00 2.219653484010E-01 -1.313406634076E+00 2.147346584714E-01 -3.842806113073E+00 3.165611295755E+00 -3.504168277465E-01 4.370811946302E-01 2.700275072471E-01 -1.725917656081E+00 -1.265208257912E+00 -1.812515342942E+00 3.389633289092E-01 -1.144450003271E+00 -2.691588227597E-01 -1.454607448927E+00 6.511488635674E+00 -1.147733111188E+00 8.854955842736E-01 -1.040563443278E+00 -3.189599704280E+00 -1.102636114898E+00 -6.564433276987E+00 9.001753021362E+00 -2.009458458809E+00 2.420810965133E+01