#BIOSYM hessian 1
@Type: Hessian Update
@Units
 distance: 	A
 energy: 	Kcal/Mol
#header
@natom 19

#label
L1      L2      L3      L4      L5      L6      L7      L8      L9      L10     L11     L12     L13     L14     L15     L16     L17     L18     L19

#element
Li Li Li Li Li Li Li Li Li Li Li Li Li Li Li Li Li Li Li

#matrix
57
 1.303137767646E+04
 -4.676116599580E+02 1.395194579477E+04
 2.804953571866E+02 1.666393839399E+03 1.079763609994E+04
 7.407780382931E+01 3.183753282939E+02 -7.302974330283E+02 1.337583662264E+04
 -1.217605903237E+02 -5.237357152506E+01 3.246678523345E+02 -1.303982912469E+03 1.091066426226E+04
 1.063318714071E+02 -2.034153303291E+01 6.281479637861E+00 -5.418441762960E+01 1.112105375203E+03 9.263362831293E+03
 1.162452583716E+01 2.993482646549E+01 -8.983937517872E+01 -2.139627804036E+02 1.192497367416E+01 -1.701302147893E+01 1.850525438317E+04
 -1.381736953950E+02 -3.384162033076E+02 6.312771114036E+02 6.076113438073E+02 -3.387454080621E+02 -1.361065336901E+02 -1.628005566034E+03 1.108471017135E+04
 -1.290691059637E+02 -3.812380784031E+02 -2.627137118322E+02 2.445183338035E+02 -1.659646541491E+02 -6.805222025417E+01 -6.627683271703E+02 -3.325961062822E+03 1.466075654866E+04
 6.831917561606E+01 1.117888208474E+02 -4.519624899884E+02 -6.665948539696E+02 6.169954068391E+02 -1.287776485952E+01 -9.386886331701E+01 4.210222304671E+02 2.133911009061E+02 1.605115696412E+04
 7.084674882098E+01 1.580657742999E+02 -5.815110952906E+02 -3.063493179217E+02 -2.253842318673E+02 1.587075993138E+02 -1.202015522740E+02 5.258491176250E+02 2.785502016290E+02 -3.700977504562E+03 9.930028165552E+03
 5.573519859367E+00 3.501591431593E+01 1.362810768682E+02 3.709837130782E+02 -3.529712004427E+02 -1.570010749479E+02 6.746241487066E+01 -3.533258090781E+02 -1.331944032698E+02 -1.135500622169E+02 1.070013016666E+03 1.872799703964E+04
 3.682222617429E+01 5.993191484930E+01 -1.046888804025E+02 -1.122992047714E+02 6.021396011707E+01 -1.237386800240E+02 -3.846523323403E+01 -6.299928913050E+01 1.135170366471E+02 -6.842552647691E+02 -7.601567803377E+02 -1.969496990103E+03 1.308523606916E+04
 1.171752521257E+02 2.593826896120E+02 -6.177962193816E+02 -4.423135253908E+02 1.450178249028E+02 1.846546074485E+02 -2.074997372320E+02 -1.183551131264E+02 4.357027566977E+02 -9.596470665157E+02 -1.129919482012E+03 -1.781658731395E+03 -4.375092785803E+02 1.320535497074E+04
 -1.484446847999E+02 -4.079551334035E+02 8.340256133688E+02 5.750984563159E+02 -1.510274504831E+02 -1.080124976548E+02 9.503093957669E+01 -4.898356889894E+02 -2.999671116335E+02 -1.561711021636E+03 -1.465585547285E+03 -5.844308864167E+03 3.490719775996E+01 2.058039004539E+03 1.166599205551E+04
 -8.912434499455E+01 1.809503322426E+02 2.267003577421E+01 -4.689369425068E+03 -2.736757661351E+03 -2.220850236990E+03 -5.517080366797E+03 -3.843413894823E+02 -9.290156751906E+02 -6.046575234186E+01 -1.552513853079E+02 2.660166634376E+01 -7.394800991192E+01 3.000065674120E+01 1.181101952151E+02 1.584212624823E+04
 -9.679762930824E+01 -3.111215115099E+02 6.459475214510E+02 -2.012405556735E+03 -2.041153340166E+03 -1.440422022171E+03 -6.962969859042E+02 -6.922890316394E+02 -4.163191728990E+02 5.238077364712E+02 2.329430007084E+02 -3.914660700230E+02 2.811954351119E+02 -6.398510200497E+01 -4.097748675202E+02 4.028727569648E+03 1.249849343254E+04
 2.372864312416E+02 -3.195663567684E+02 -8.850547440877E+01 -1.792516856526E+03 -1.476869849602E+03 -1.196111274617E+03 -1.147583151899E+03 -4.343629478667E+02 -3.904271491490E+02 1.968467665327E+02 3.075069416801E+02 -1.626454432628E+02 -9.438115640161E+01 5.065645836275E+02 -3.890548334055E+02 2.176124403230E+03 -1.828993231615E+03 1.589707648123E+04
 -3.932133224794E+02 1.182193305597E+03 1.072501969175E+03 -7.119702800686E+02 -3.079254014952E+02 3.063856511352E+01 -1.108427595126E+03 8.616152232501E+02 -2.457189914256E+03 -6.418772233102E+01 -2.271931593053E+02 6.208718813425E+01 -1.024790006030E+01 -1.637637094147E+02 1.829314054213E+02 -2.937567304468E+03 -1.454128928751E+03 3.166986792473E+03 1.342511719611E+04
 9.106661730120E+02 -3.413475213958E+03 -2.542200773009E+03 5.011243154429E+02 -5.590654380464E+02 -4.993683580481E+01 7.214855659934E+02 -1.101684493661E+03 1.256722204971E+03 5.187692670706E+02 6.642075258299E+02 -4.071028928812E+02 1.104865227046E+02 5.673289649087E+02 -7.930779811008E+02 -1.464934862173E+03 -1.621207498944E+03 1.493625538292E+03 1.129951039973E+02 1.035693399178E+04
 1.276416386118E+03 -3.568550022943E+03 -3.973530422474E+03 4.946282664563E+02 -1.554079189305E+02 -4.323014383118E+01 -2.490730258177E+03 1.153710307272E+03 -5.691583405373E+03 1.072603114425E+02 2.971352922472E+02 -1.435308158832E+02 -2.943792881393E+00 2.778461961363E+02 -1.698869259208E+02 3.168916808095E+03 1.438384468304E+03 -3.360013528042E+03 -5.883763234751E+02 1.387365209935E+03 1.544174672308E+04
 -3.464304490261E+02 -1.854728990285E+02 6.509535390611E+02 6.655806323073E+02 -2.734106554518E+02 -8.106983147874E+01 -2.293738699004E+02 -1.744916766559E+02 -6.974741571733E+01 2.426376650280E+02 5.800638414539E+02 -2.281633258326E+02 -2.144843830078E+02 4.612563855518E+02 -3.758146355355E+02 1.059207264233E+02 -6.453870604259E+02 -3.567435684871E+02 1.113949179212E+02 -7.328665524273E+02 -3.483919277101E+02 1.167693499921E+04
 3.319827083410E+02 2.665094085047E+01 -6.033687789083E+02 -7.517201950380E+02 4.557436688708E+02 1.883634858448E+02 4.038466412007E+02 -1.103971656421E+01 1.067291226101E+01 -6.242335299450E+02 -5.455283369372E+02 5.491910403584E+02 -1.205606317458E+02 -4.598062848622E+02 6.547168687977E+02 -2.526013604469E+02 6.254775897060E+02 2.950758146241E+02 -5.550068456249E+01 6.029143768580E+02 1.581198647513E+02 5.254010290509E+02 1.426595250319E+04
 -1.639606881590E+02 4.399550989065E+02 -6.153078269410E+02 -5.077944619221E+02 3.011864404856E+02 7.388087675624E+01 2.251184487199E+02 1.202307252591E+02 3.317283135390E+01 -2.353078003117E+02 -4.283492667084E+02 2.507139405271E+02 2.076663061381E+02 -3.686984672515E+02 1.242095983239E+02 -2.061064281823E+02 3.930572575636E+02 1.835365089692E+02 5.595736494067E+00 5.027081739509E+02 2.911624021978E+01 4.071155973370E+02 1.491782676671E+03 1.251735239078E+04
 -1.389800329920E+02 -6.858693473584E+01 -2.857806447819E+02 -1.243313805110E+03 2.463603030621E+03 1.335922178314E+03 -1.518401195273E+02 2.535237978129E+02 7.671178309824E+01 -3.536073957109E+03 2.066563495542E+03 -2.284955813888E+03 -1.469682179523E+02 -1.852403936825E+02 6.521412523206E+01 -5.859211169930E+01 7.633180456130E+01 8.469504106124E+01 -1.629481912991E+02 3.037803332847E+02 2.540377402389E+02 2.031706721915E+02 -4.117399920859E+02 -3.641328573514E+02 1.271430869253E+04
 -8.259718378064E+01 -1.842623468319E+01 -7.952681574414E+02 1.287263100013E+03 -5.022509279139E+03 -2.739439612880E+03 -5.821360874353E+01 7.562877579485E+02 3.565808577092E+02 1.624919863868E+03 -2.041756488641E+03 2.245051493844E+03 -1.103154195964E+02 -5.279382865924E+02 7.024022072943E+02 -3.803436785239E+02 -6.831843018695E+01 -1.387181159545E+02 -2.490874412593E+02 6.949029344991E+02 1.830426068664E+02 8.907781316260E+02 -8.400914688935E+02 -4.452141684374E+02 -1.420623950332E+03 1.368674351212E+04
 2.634964511976E+02 5.528274628956E+02 -8.297338366910E+02 3.023009507346E+02 -2.449845640547E+03 -1.429823877875E+03 -1.143835714300E+01 6.890206154194E+02 3.461046739776E+02 -3.044369363721E+03 1.104323694096E+03 -1.499769012281E+03 -2.412706283528E+02 -6.289765222644E+02 2.074839930018E+02 -3.540335624134E+02 1.738853151939E+02 -2.554980388914E+01 -2.448711854087E+02 7.942906740811E+02 1.071994038394E+02 8.449810603539E+02 -6.285949650459E+02 -3.604139909022E+02 -8.338929868538E+02 8.915195517372E+02 1.195597424185E+04
 -2.236376594493E+03 2.636496686352E+03 -5.780328095427E+02 6.310276487130E+02 -3.111352464918E+02 -8.965269552946E+01 6.775475276872E+01 -5.850043758986E+02 -2.865227520394E+02 -3.930855472489E+02 7.489575341074E+01 2.665154840350E+02 3.108423117754E+01 4.734579641707E+02 -4.997697605135E+02 1.721400546633E+02 -5.865811474162E+02 -2.844754449539E+02 2.381450783221E+01 -5.061879744027E+02 -1.118795945602E+02 -3.137890231792E+03 2.036174232930E+02 -2.892707196256E+03 1.055289230403E+02 6.905430379026E+02 6.918226127348E+02 1.326892850721E+04
 3.004839808883E+03 -4.004367102407E+03 1.543635312325E+03 -8.069378610920E+01 -1.366099182047E+02 -7.704627487049E+01 1.705226843025E+02 -3.624784865087E+01 -1.314777609868E+02 -4.184840078154E+02 -4.684289501853E+02 2.347058370226E+02 -5.704333064638E+01 -1.490806786568E+02 2.909278873478E+02 -5.824010009015E+01 6.367510781085E+01 -6.228900185704E+00 2.398454982060E+02 -2.756574078704E+02 -1.702023721265E+02 -3.972179155812E+02 1.303125609366E+02 -4.525097867291E+02 -3.313375634159E+02 9.533700074932E+01 5.107080704927E+01 1.982545894953E+03 1.833506264318E+04
 -1.179968710466E+03 1.980819281581E+03 -1.251431870921E+03 -4.268876923157E+02 2.411097456229E+02 8.641779518580E+01 -3.839776443866E+01 3.155681563292E+02 2.960925779026E+01 2.756769230209E+02 -6.711562718799E+01 -1.861520690464E+02 5.785759026661E+01 -2.410396713146E+02 1.321620944859E+02 -5.607565052880E+01 4.439514691148E+02 2.485125656796E+02 1.108107457429E+00 3.232165720166E+02 1.074368113042E+02 -2.885344444869E+03 -1.005276734848E+03 -4.511319202509E+03 -1.241434097809E+02 -6.414775680848E+02 -5.120936263493E+02 4.435417945699E+03 -2.025408446758E+03 1.319431281572E+04
 -1.332503059284E+03 -2.590757161457E+03 -2.559110800178E+01 -7.027524942791E+02 3.583206840490E+02 3.329089682109E+02 -1.517572349854E+01 3.784823270668E+02 1.782935351380E+02 -3.982683088880E+02 -7.176042414939E+02 9.334949852897E+02 -4.024077172540E+01 -3.163795697195E+02 3.623822921324E+02 -1.402599989117E+02 4.243485131251E+02 2.870398911520E+02 -8.480689582691E+01 4.355356236341E+02 1.118409853792E+02 2.621879668197E+02 -3.790083272838E+02 -3.563705129007E+02 -5.408557096327E+03 -9.626773175439E+02 2.454791265223E+03 -5.357290722309E+03 -6.257582838728E+02 -1.434263673268E+03 1.706890561768E+04
 -2.726637465728E+03 -5.336899775668E+03 4.566752792085E+02 8.587278876882E-02 -2.342124056194E+02 -2.825036879100E+02 2.923761163277E+01 1.688503225017E+02 3.796701407826E+01 -4.387271370240E+02 -1.863388604092E+03 2.742613767795E+03 -3.798370870810E+01 -2.152222357029E+02 3.625306753388E+02 -1.148087823462E+02 2.547733560994E+01 -1.070641220704E+02 -1.357775745171E+02 -2.463402749038E+02 -2.154322267051E+02 3.031354559430E+02 4.820112765931E+01 8.455257660727E+01 -5.716722684663E+02 1.095891010764E+01 1.839079517726E+02 -5.584003190364E+02 -3.004538967839E+02 -2.978159373330E+02 -1.404265070859E+03 1.749191734000E+04
 5.325493818416E+02 1.099344510283E+03 -8.446055031799E+02 -4.610868462577E+02 2.039449834886E+02 -6.789482151654E+01 -1.382425954336E+02 6.531683427623E+02 2.978463905659E+02 2.733410371277E+02 2.091978215718E+03 -4.787217775509E+03 -8.298400406826E+01 -4.343037911126E+02 3.002789036448E+02 -1.224058826305E+02 5.216094890106E+02 1.862017678830E+02 -2.413654252283E+02 5.029766422607E+02 8.948915217474E+01 6.139476005067E+02 -7.901957351375E+02 -5.098568498668E+02 2.640925380293E+03 -5.064383636341E+02 -2.208897183663E+03 -5.534118892905E+02 -2.274403698712E+02 -6.849073588894E+02 -2.291718452239E+03 -3.595312366366E+03 1.023441136535E+04
 -5.823614089806E+01 -5.207669721023E+01 1.746939408584E+02 1.442885335693E+02 -1.166005248114E+02 -4.101871603661E+01 3.860315662004E+01 -1.789450286846E+02 -8.713857857295E+01 -3.553236561379E+03 1.440562939726E+03 3.432995983668E+03 -3.403549274027E+01 1.593662598960E+02 -1.001154676334E+01 1.487876921482E+01 -1.471013385677E+02 -7.478858294675E+01 5.540523575708E+01 -1.685636181318E+02 -4.789280379973E+01 -5.345121026931E+02 -3.096196624158E+02 -1.869988065350E+02 -6.247527217473E+02 6.219857004209E+02 2.926989644886E+02 -1.670712601314E+03 -3.017681124010E+03 3.832908800200E+02 -2.311311543275E+03 3.319380991821E+03 -1.026206181274E+03 9.665583002559E+03
 1.698114345493E+02 -2.814515204332E+02 -5.540522020173E+02 -6.066462057881E+02 2.630109362690E+02 1.068190976301E+02 -1.519796746031E+02 6.439173527826E+02 2.940226542249E+02 6.557814810057E+02 -1.017086199901E+03 -6.791902557925E+02 -3.103165844203E+01 -5.301605909160E+02 4.035659890034E+02 -1.192491769554E+02 6.458720193108E+02 3.574473490279E+02 -2.083875349720E+02 7.519241654528E+02 3.531654430907E+02 3.542223985362E+02 -9.785253891944E+02 -6.619266922992E+02 3.312583063347E+01 -9.007309603806E+02 -7.645498993880E+02 -2.314910709365E+03 -6.056758351113E+03 2.713405517311E+01 2.875053238936E+03 -4.641668120026E+03 9.223346943039E+02 -6.277329912949E+02 1.286756551120E+04
 6.560850954028E+01 3.343248638930E+02 -4.611551189889E+02 -3.135795237767E+02 1.304236142232E+02 2.326711257984E+01 -1.023657062419E+02 3.435751490067E+02 1.380366333790E+02 3.356586133696E+03 -1.589341711671E+03 -3.259174656292E+03 9.940237075477E+01 -3.905700309628E+02 -2.826741662290E+02 -3.796577905342E+01 3.517286875229E+02 1.842639652916E+02 -8.146384186181E+01 3.287857338744E+02 7.047936483887E+01 1.490609940756E+02 -5.730978908921E+02 -3.647505404334E+02 -1.218303107790E+02 -3.916383816792E+02 -3.649639864845E+02 7.029382840872E+02 6.947576867459E+02 -3.335792190769E+02 -1.566060733151E+03 1.755661671904E+03 -1.072850972516E+03 -4.635827082861E+02 1.122262314719E+03 1.116935969443E+04
 -5.621560278145E+01 -1.503462556088E+02 2.210261522216E+02 7.960765554570E+01 1.252667441935E+02 1.771549594164E+01 -5.476161751313E+02 1.534873584896E+03 -5.438048687796E+02 -2.652608867569E+02 -9.970207907945E+01 -2.533954885965E+02 -3.979320721302E+03 -3.154403357522E+03 3.111001770529E+02 -3.421229646602E+02 2.223122635248E+02 -2.337122840534E+02 -3.721689793624E+01 -8.765891451598E+01 -1.740470056788E+02 -2.832255431698E+03 6.153739745629E+02 3.465318105059E+03 8.001810515316E+01 9.233998079842E+01 1.623638368121E+02 -1.901344483400E+02 1.273814876056E+02 1.228833261922E+02 6.581626281077E+01 1.758102135624E+02 6.454319145785E+01 -5.941813819781E+01 7.306684699395E+01 1.516046346452E+01 1.684093238831E+04
 6.635742986960E+01 1.961232367789E+01 -3.090420300636E+02 -4.132918539696E+02 2.918807571691E+02 1.447272509896E+02 1.553010632173E+03 -5.165193047079E+03 1.762654324046E+03 -5.331395135115E+02 -4.693052910476E+02 5.736179606605E+01 -3.285031726893E+03 -2.794309236000E+03 7.281690882312E+02 1.996380888886E+02 1.355025252577E+02 2.427545071221E+02 -6.789008479516E+00 1.190559263083E+02 2.339260244196E+02 9.463745878927E+02 -6.738905249675E+02 -1.245390798196E+03 -1.355109057902E+02 -5.197586112987E+02 -4.412900696021E+02 4.034962971983E+02 8.258724923831E+01 -3.623619410019E+02 -1.863370077914E+02 5.696222269388E+01 -4.248403134898E+02 1.173401384849E+02 -4.273740778629E+02 -2.936947283590E+02 2.216280540902E+03 1.863381433510E+04
 -1.354855256866E+02 -2.610552037964E+02 7.097234142964E+02 7.172128492931E+02 -4.000290489405E+02 -1.593194938724E+02 -4.474934913865E+02 9.556937046228E+02 -8.742018888629E+02 2.715015361398E+02 4.144259091159E+02 -4.730413793673E+02 5.322130845551E+02 8.772662646188E+02 -6.572430739834E+02 6.333690824276E+01 -5.911039592163E+02 -4.142927739148E+02 1.545851013964E+02 -6.476095923313E+02 -2.894743000418E+02 2.562785298253E+03 -1.047544370960E+02 -4.013637519580E+03 2.393944098408E+02 8.551408566426E+02 6.634143287022E+02 -5.362927680290E+02 -8.504439944472E+01 -4.612397571073E+02 3.562076963462E+02 1.531680472662E+02 6.247305593027E+02 -1.966171106021E+02 5.882943150728E+02 2.119424444979E+02 -5.471902727055E+03 1.953618940324E+02 1.119110948655E+04
 -2.928400659344E+03 -9.817364485089E+02 -2.932047839002E+03 2.107896937567E+02 -3.223038776098E+01 6.733291931719E+01 -1.196248335140E+03 5.163040634099E+02 2.245285252703E+03 1.120010177346E+02 2.216293371521E+02 -3.298957007009E+01 1.817918562110E+01 1.854499820534E+02 -2.901661029850E+02 -4.203433623589E+02 -1.717112298726E+02 1.728933197110E+02 -4.920433915718E+03 2.472515009808E+03 2.964621235764E+02 -1.896655903474E+03 2.902746377276E+03 -1.106563506583E+03 1.119226304808E+02 2.634697918059E+02 3.251524935765E+02 -3.266911344759E+02 -2.530829404521E+02 -9.588654928634E+01 -1.166486153885E+02 -1.466762356057E+02 9.376362208249E+01 -1.099549077752E+02 1.744882879582E+02 9.415063503094E+01 -2.021680124946E+02 -1.276437433913E+02 -5.701876266304E+01 1.418881185572E+04
 -9.289808662120E+02 -3.796576324497E+02 -2.966045588511E+02 4.967744701861E+02 -2.287084466737E+02 -1.010488192489E+02 7.119283063793E+02 -9.928184143204E+02 -1.737250003709E+03 2.803965226270E+02 3.665007329840E+02 -1.650115400057E+02 7.200513919974E+01 3.277491294976E+02 -4.462054275640E+02 2.328930647103E+02 -4.904416288268E+02 -2.911286256473E+02 3.021013995411E+03 -2.246706221731E+03 -4.194370164655E+02 2.054629225323E+03 -4.341581043612E+03 2.408303269761E+03 2.007923123933E+02 4.537740678057E+02 4.946588692617E+02 -9.030044843217E+02 -5.187761742055E+03 -1.711706308197E+03 -3.172039017163E+01 -1.395352541342E+02 3.488163818129E+02 -1.096018297380E+02 2.773248934269E+02 2.652137081733E+02 -3.288913776495E+02 -4.190526374299E+02 5.554745976381E+02 -4.329451392776E+03 1.420592254530E+04
 -3.056435672918E+03 -6.907943945744E+02 -4.092253242720E+03 -5.826016374168E+02 4.497402208749E+02 1.637062013016E+02 2.222306658728E+03 -9.895323586373E+02 -4.555050027825E+03 -3.629093786336E+02 -3.880385676550E+02 3.710854131129E+02 -3.467628925299E+01 -3.325455015294E+02 2.823976550328E+02 1.386498023249E+02 4.857814592022E+02 1.718309719816E+02 3.101091430691E+02 4.880178325743E+02 1.346374410281E+02 -7.810808733665E+02 1.305559520495E+03 -1.358927891812E+03 -1.745278599276E+02 -8.450026210299E+02 -5.624279376305E+02 3.469182161129E+02 -2.033985977465E+03 -1.218741032529E+03 -4.524319892705E+02 -1.724120750566E+02 -6.575232763473E+02 1.660870780961E+02 -5.658514267405E+02 -2.885877936364E+02 9.840367446852E+01 5.018200153248E+02 -1.181456365239E+03 4.549835081654E+03 2.017379879842E+03 1.819682395462E+04
 4.821854123123E+01 1.045365999720E+02 -2.056836568187E+02 -5.300882317207E+02 -5.939281531182E+01 -3.722136090329E+02 -2.401315202610E+03 -2.314059472771E+03 2.433506544541E+03 -1.067389919819E+02 -2.434848368189E+02 3.520034623593E+00 -1.638361742970E+02 8.898519504866E+02 2.883704523236E+02 -1.432526544407E+03 1.621371746704E+03 -2.344452412746E+03 -1.193158921894E+02 1.518999024672E+02 7.961781320683E+01 7.590153197533E+01 -4.386588929312E+01 -6.878968681965E+01 -1.294869566676E+02 -2.804416561962E+02 -1.701677073325E+02 1.777147203694E+02 2.826464718997E+01 -9.513446256511E+01 -7.147340927899E+01 -9.333297784438E+01 -1.846729904911E+02 4.225670263709E+01 -1.547828968960E+02 -8.929007578626E+01 -5.124938257749E+03 2.378372025744E+03 1.525271970632E+03 -5.648351257304E+01 1.462703931743E+02 -2.292558744440E+01 1.303142974942E+04
 -1.299457068850E+02 -2.270944631673E+02 7.557609791184E+02 7.562536004212E+02 -3.324729151347E+02 -1.456912575570E+02 -2.354239665525E+03 -3.019371527352E+03 1.951912147528E+03 3.217923160731E+02 8.141547699360E+01 -5.032037321761E+02 1.071553603677E+03 -6.904987939653E+03 -1.375478974911E+03 1.690383327327E+03 -2.063419263427E+03 2.132815967913E+03 -2.158196355324E+00 -7.653642818833E+02 5.488275116391E+02 -6.650643419087E+02 4.749924443572E+02 2.171209760108E+02 3.737965929046E+02 5.700299662555E+02 4.779114169716E+02 -5.289780468655E+02 3.376253107126E+01 5.306293717267E+02 2.792372393429E+02 1.095022351995E+02 6.844836669155E+02 -1.687922187490E+02 5.793611750192E+02 4.235577489355E+02 2.303369809038E+03 -9.071674698813E+02 -1.320530469559E+03 -3.129354569492E+02 -3.787187731076E+02 4.427316499307E+02 9.909586567479E+01 1.555216385901E+04
 -1.264018001063E+02 -4.000166775233E+02 7.040305342541E+02 1.762065974674E+02 -2.540611790479E+02 -4.302342760719E+02 2.358010350783E+03 1.915892788445E+03 -2.480662827223E+03 3.418439865774E+02 2.129701309548E+02 -4.538047626231E+02 2.127639521207E+02 -4.128461783894E+02 -7.341642589913E+02 -2.246778667989E+03 2.129749504626E+03 -4.439409848002E+03 2.537548944594E+02 -4.403215123289E+02 -8.357336080690E+02 -5.017240475505E+02 5.177039508666E+02 2.913315505294E+02 1.793854941638E+02 5.415503484708E+02 5.016221314000E+02 -5.562227626188E+02 1.195245382952E+02 3.359863443973E+02 3.754927658356E+02 1.782331468753E+02 5.407063033446E+02 -1.311112140600E+02 5.137675724632E+02 2.543993942605E+02 1.140443591755E+03 -2.152228358084E+02 -1.010348219202E+03 -7.574608686794E+01 -4.534069799320E+02 1.342062753452E+02 7.231807008758E+02 -1.829552425514E+03 1.062519172528E+04
 -1.065088463393E+02 -1.691230180395E+02 4.975593487597E+02 4.088124180733E+02 -1.738617451230E+02 -8.464542060728E+01 6.267098493981E+01 -3.918618064951E+02 -1.668221247806E+02 -5.399827452469E+03 -3.122289510568E+02 -1.427513781435E+03 -3.311270512012E+03 1.256769492646E+03 2.974827481501E+03 9.497145025609E+01 -3.635997469767E+02 -2.345986745804E+02 1.104656335790E+02 -4.666575309662E+02 -9.991547182895E+01 -3.986745156311E+03 -2.779770205568E+03 1.419234828765E+03 6.092407414089E+01 5.124963078675E+02 3.331109083263E+02 -5.249925852327E+02 -3.249252698329E+02 1.012112144685E+03 -2.116172483711E+02 3.325354364560E+02 -2.271564160866E+02 -8.165880632330E+02 -3.499545624083E+02 -1.844912804959E+03 -1.116989443700E+02 -6.222089705368E+01 -6.599967234572E+02 -2.521851966629E+02 -2.915325425169E+02 4.342738351729E+02 -4.190200386716E+01 -1.612011168346E+02 -2.373966388831E+02 1.471612762808E+04
 1.522090736151E+02 1.308306967382E+02 -4.557668633676E+02 -4.580180875871E+02 1.579434232302E+02 6.943415677459E+01 1.037403278646E+00 1.625046593485E+02 2.522898518620E+02 -8.951048221533E+02 -5.514483392744E+02 3.797923292589E-01 9.345398465733E+02 -6.457102098960E+02 -5.337310538164E+02 -9.165296386034E+01 4.364355923178E+02 2.817995655837E+02 -1.229551181057E+02 5.677655127944E+02 2.813884920696E+02 -2.781282577508E+03 -3.192514646945E+03 6.975198947183E+02 -2.134719394772E+02 -5.138538643858E+02 -6.122125423196E+02 1.243716752459E+02 -1.780577532293E+03 2.379314747624E+03 -3.356176588681E+01 -3.538226630433E+02 -1.728681014864E+02 -7.073073866262E+02 -1.433878873559E+03 -2.705873254567E+03 -1.974001084117E+02 -4.146685376214E+03 -2.431131773205E+03 9.693574700088E+01 -4.090796056953E+02 6.931417668581E+01 1.472206007954E+02 6.960737059456E+01 2.338909117682E+02 4.006586283750E+03 1.182174916605E+04
 -1.035295295157E+02 1.984660229592E+01 2.273998452627E+02 4.871711526659E+02 -3.946958203401E+02 -1.687830939071E+02 1.712875959582E+02 -5.021916228353E+02 -1.728397250556E+02 -7.331428883025E+02 1.223470385933E+02 -4.885980319037E+02 3.428494402476E+03 -6.987261286490E+02 -3.616835675352E+03 6.665539750941E+01 -4.622431141728E+02 -2.104383081150E+02 1.628240154721E+02 -5.188204655459E+02 -1.832266189304E+02 5.544209821647E+02 1.632976622294E+03 -7.886247312805E+00 -9.595619304679E+01 7.850915729922E+02 4.098404385415E+02 2.967447112323E+02 2.676416568848E+03 -4.792092098436E+03 -3.374007725217E+02 2.907039021161E+02 -4.730907709807E+02 -2.154521552592E+03 -1.670828316485E+03 -5.638722163659E+03 -1.938634936147E+02 -2.626875924700E+03 -2.587433116166E+03 -5.645543154430E+01 3.036941411774E+01 3.026231620611E+02 2.643976875485E+02 -5.526071945435E+02 -4.440656612773E+02 -1.572147022108E+03 2.449950669977E+03 1.812357014231E+04
 6.385234359553E+01 2.400383570657E+02 -4.434544615137E+02 -2.822051152017E+03 2.700114018063E+03 -2.463623920972E+03 -3.071894598048E+02 -2.815945516865E+01 1.834793205928E+02 -1.490834675793E+03 1.798301452047E+03 1.447992834697E+03 -4.306829781498E+03 2.106136272552E+03 -1.853046457015E+03 -3.325703659938E+02 -6.475619877240E+02 3.510502904380E+02 -1.715336585533E+02 3.216764264875E+02 1.634384601573E+02 3.302257661314E+02 -2.635350421334E+02 -1.564820581638E+02 -6.325763723900E+02 -5.830687406825E+02 -1.703501191718E+03 2.722164000616E+02 -2.074323559893E+02 -1.387676230151E+02 -3.095327926618E+02 -1.507983273319E+02 -1.187253126195E+01 -7.698767403073E+00 -2.442943311247E+02 -6.749665803651E+01 -6.294406913072E+02 -2.316712232117E+02 1.888319933153E+02 1.634331918163E+02 2.155523488700E+02 -1.050219654513E+02 -2.608935568395E+03 -2.059373041931E+03 -1.759242798902E+03 -3.509001663716E+02 -6.270829894938E+01 2.344902139576E+02 1.322146900552E+04
 7.146369406009E+01 5.962523194722E+01 -3.799301169803E+02 2.035810390810E+03 -2.397401526885E+03 2.692084681519E+03 -3.778753499876E+02 3.368563020333E+01 1.667202842554E+02 1.792512008543E+03 -3.621917939289E+03 -2.013092135209E+03 2.281580465261E+03 -1.503016704019E+03 1.591383989653E+03 -9.813313980932E+02 -5.729964676743E+03 1.352600467799E+03 -1.790871801182E+02 1.448423509714E+02 2.449251643755E+02 4.577368847005E+02 -4.943424145610E+02 -3.329721326942E+02 -3.847396251897E+02 -9.989337104222E+02 -2.192036952953E+03 3.470279683255E+02 8.042686743022E+01 -3.403037582232E+02 -2.910633772300E+02 -2.451063993991E+01 -5.144740561937E+02 1.050377459102E+02 -4.550139551433E+02 -3.049144170780E+02 -3.516992805174E+01 -2.673511910253E+02 4.286289162844E+02 9.247004276608E+01 2.049178398176E+02 -4.296214655013E+02 -2.578170610196E+03 -2.046274444606E+03 -1.606924047805E+03 4.794625406417E+02 -3.420769269003E+02 3.000169785135E+02 -3.078797702007E+03 1.733123182061E+04
 -1.161781127177E+02 -1.891248160386E+02 5.930978077555E+02 -1.684348025415E+03 2.191065500264E+03 -2.580100599623E+03 8.620238555344E+01 -6.579973930859E+02 -3.007162473096E+02 1.824681017489E+03 -1.701220355264E+03 -1.767287203668E+03 -2.112622079426E+03 1.644793723095E+03 -1.617454811876E+03 3.784279052734E+02 5.944558345959E+02 -5.680921404948E+02 1.336944108019E+02 -5.864333577196E+02 -2.237577793855E+02 -5.845029906969E+02 7.047935889810E+02 3.727668221908E+02 -1.008850512376E+03 -7.953833967072E+02 -5.854150194492E+03 -5.088055291842E+02 -1.919233516960E+01 4.118877745808E+02 6.162806208140E+02 -2.201468095783E+01 -2.185229302812E+02 -7.844212354717E+01 5.661580079880E+02 2.313671854610E+02 -2.402201356623E+02 3.518180764222E+02 -6.826399558132E+02 -1.457510416029E+02 -4.099892622928E+02 5.630136199171E+02 -1.978084495322E+03 -2.666812778629E+03 -2.399206988127E+03 -3.137811030836E+02 3.855297295476E+02 -4.609457812385E+02 5.915913412130E+03 5.409542348800E+02 1.593298831608E+04
 -5.508655900818E+03 7.840898713706E+01 2.351469914167E+03 -4.317489437616E+03 -7.242115645637E+02 3.735313586155E+03 -1.917023194552E+02 -7.180693755210E+00 -3.043592413570E+02 -6.074377117303E+01 -2.605198740806E+01 -8.152582181468E+01 -5.866931531712E+01 -8.920439362349E+01 2.068206815224E+02 -1.192753988375E+02 8.350004276263E+01 1.395529973257E+02 -2.676495116288E+03 -2.699899768745E+03 -1.496963541160E+03 9.231979594018E+01 3.049053536865E+01 -9.909343665172E+01 -1.242885798202E+03 -2.418901645988E+03 3.592730923697E+02 -3.806898535190E+02 1.345770275024E+02 -3.508331280430E+00 -1.183644789934E+03 2.028339470748E+03 6.495395094655E+02 -3.469379082598E+01 3.414007227167E+01 -2.887280781100E+01 1.057273656953E+02 7.579864863739E+01 2.694728748972E+01 -6.726483352500E+02 3.781740281102E+01 -1.612768172677E+02 -1.020677003341E+02 1.688972570904E+02 4.296746665794E+01 7.307034153374E+01 -7.734515584430E+01 -1.135967483131E+02 -3.435617628277E+02 -3.342211562252E+01 2.467529396601E+02 1.651967142490E+04
 -1.369475808254E+02 -1.208389075160E+02 5.781188575885E+02 -9.132669270675E+01 -3.209129955320E+02 4.761188648044E+02 -5.419387202195E+01 -5.137111772472E+02 -3.986559338627E+02 3.113557832335E+02 -3.557729815709E+02 1.081051325164E+02 3.154675977322E+01 2.948075303084E+02 -3.963487354279E+02 2.387087120882E+02 -1.111025796646E+03 -2.121477227915E+03 -2.739139896072E+03 -3.628620567865E+03 -1.881065947367E+03 -4.248455566779E+02 3.634827028560E+02 2.812556149747E+02 -2.134626559202E+03 -5.495423237077E+03 1.723705452774E+03 -1.295841556206E+02 -1.000007182631E+02 3.277602801353E+02 2.468594875131E+03 -4.521874060997E+03 -8.918225497432E+02 -9.921201269418E+01 2.681418548446E+02 2.552171054623E+02 -4.518566374933E+01 1.807598142184E+02 -4.406199006244E+02 -2.994378948219E+02 -2.695473156352E+02 3.181870717970E+02 8.399989525505E+01 -3.298141719959E+02 -4.599894269266E+02 -2.537968609409E+02 2.742314528105E+02 -2.489848845696E+02 1.041873953428E+02 -3.473975088416E+02 6.637178358591E+02 3.493063833723E+03 1.607988771392E+04
 2.550683814174E+03 2.648308669829E+02 -1.755657313785E+03 2.905529810952E+03 1.031509546673E+03 -3.107317324708E+03 -3.890927912617E+02 4.686687482780E+02 -6.197951067495E+01 -6.079208216810E+02 -7.166506811643E+01 1.065164447566E+02 -3.685711103976E+01 -3.995460382965E+02 4.000181365315E+02 -4.759338753439E+01 -1.341377745948E+03 -5.474943150521E+03 -1.819025223547E+03 -8.794199570588E+02 -7.551090068901E+02 6.474538049231E+02 -8.181112102646E+02 -4.413039316466E+02 3.815455912198E+02 2.944731211505E+02 -8.895377225425E+02 5.982350362896E+02 -1.737828603930E+00 -4.523609799017E+02 2.618293186840E+02 -1.550449200929E+03 -1.058366040834E+03 9.685367702444E+01 -6.280578246417E+02 -3.386891416084E+02 9.722332703831E+00 -4.276106614281E+02 6.170290403949E+02 8.007589374078E+01 4.185592024599E+02 -6.396118529041E+02 -1.527710955560E+02 5.442766640981E+02 1.493611249326E+02 3.347641104376E+02 -3.939641438157E+02 4.748964368894E+02 1.160186553836E+02 5.164067597013E+02 -1.075808578346E+03 -5.366209126727E+03 2.377831801498E+03 1.398409836466E+04