#BIOSYM hessian 1
@Type: Hessian Update
@Units
 distance: 	A
 energy: 	Kcal/Mol
#header
@natom 6

#label
L1      L2      L3      L4      L5      L6

#element
Li Li Li Li Li Li

#matrix
18
 1.863967386455E+03
 -7.984562218736E+01 2.026853485718E+03
 -7.473745647688E+01 5.803004023830E+01 2.038548484604E+03
 -2.801307263722E+01 -1.030767273831E+02 6.889595570638E+01 2.101687979300E+03
 -2.379867201102E+02 1.624888447085E+02 -2.547238760474E+02 3.240072417947E+02 1.204004890846E+03
 1.764480190650E+01 1.459767671935E+02 1.478867365283E+02 -4.392464133035E+01 1.133773758714E+02 1.671172561726E+03
 5.295047509957E+02 1.146917188152E+02 1.475755674727E+02 7.171149515569E+01 2.650987464777E+02 -6.246073617632E+00 1.464538264589E+03
 -1.276653044457E+02 5.948185596462E+01 1.356981139185E+02 -2.196480742134E+02 5.242460356701E+02 -5.364349314295E+02 2.444525385694E+02 1.296195074286E+03
 -2.400599108151E+02 -3.202505863783E+02 1.848480726543E+02 -9.252615613642E+01 -3.940074864233E+01 2.012601126257E+02 2.444096569755E+02 2.843421063616E+02 1.201070914956E+03
 1.818587436468E+02 -7.520431404164E+01 7.572155786034E+01 -2.396809250033E+01 2.188159758322E+02 2.017901382183E+02 -2.825025858905E+02 2.108990686508E+02 -1.217642346450E+02 2.020030657833E+03
 1.677608764794E+02 -1.748906038289E+02 5.008853068082E+01 -5.432127488122E+01 1.988909553006E+02 2.518287155180E+02 -2.251632864894E+02 3.261436992961E+02 -2.377241424171E+02 -2.157749522053E+02 1.892387484840E+03
 3.146755022346E+02 2.423247126616E+02 -1.182399673818E+02 1.958533895535E+02 -2.281196371802E+02 2.473394848936E+01 -4.375263439708E+02 2.827470895268E+02 5.289603494574E+02 -4.775585363455E+01 2.195365009379E-01 1.686550997369E+03
 -2.291618240619E+02 -3.237081807941E+01 -2.326575400778E+02 4.469614365175E+01 -3.094051442612E+02 2.283945479348E+02 3.599241401294E+02 1.327752341381E+02 6.939657905388E+01 1.144498181209E+02 5.980121972225E+01 2.937982714275E+01 1.887120066485E+03
 7.414011960805E+01 1.670489337913E+02 -1.956627468225E+02 7.128583196277E+01 -2.566895056718E+01 1.531668297319E+02 -7.033588781502E+01 -7.329010447083E+00 5.326496748071E+02 -6.798424329212E+00 1.162169950836E+02 -2.830786727415E+02 -1.644389288973E+02 1.772755326481E+03
 -6.536064042199E+01 -1.557010729276E+02 -1.096966699207E+02 -1.622356157998E+02 4.834001935861E+02 3.505636514994E+02 1.498157858122E+02 -1.770907685838E+02 2.271240162821E+02 -1.240789183795E+02 -7.956260135529E+01 1.353696137892E+02 -2.328133326342E+02 -3.699739136813E+02 1.343343164959E+03
 -7.730986367771E+01 1.758057628763E+02 1.520191551507E+01 7.473166775031E+01 -2.605300997326E+02 -3.976587731119E+02 9.767005574180E+01 -2.408134626995E+02 1.405440655676E+02 2.309775795110E+02 2.676974173739E+02 -5.462652132549E+01 6.381777639543E+01 9.614728947086E+01 4.346727214233E+02 1.850958905000E+03
 2.035966506560E+02 -1.363956327893E-01 2.065699380322E+02 -1.824699727983E+01 1.768843447629E+02 -1.279147568853E+02 -3.287438295579E+02 4.210846595091E+01 -2.196163037308E+02 -1.319373539067E+02 -1.179024099713E+02 -1.409302876774E+01 3.136384373774E+02 2.178228263793E+02 2.989281629618E+02 -3.830690728897E+01 1.922069289232E+03
 4.783770357291E+01 2.962013921229E+01 9.749946423723E+01 3.393706800660E+01 -7.453330758704E+01 -1.547708901482E+02 -9.802859267204E+01 1.073839020595E+01 -1.024173452548E+02 1.608731058050E+01 1.514996107278E+01 -1.652882100242E+01 1.382999185805E+02 1.628988287063E+02 2.941423441119E+02 -1.381334080684E+02 -1.438740116103E+02 2.122921368777E+03

