#BIOSYM hessian 1
@Type: Hessian Update
@Units
 distance: 	A
 energy: 	Kcal/Mol
#header
@natom 19

#label
L1      L2      L3      L4      L5      L6      L7      L8      L9      L10     L11     L12     L13     L14     L15     L16     L17     L18     L19

#element
Li Li Li Li Li Li Li Li Li Li Li Li Li Li Li Li Li Li Li

#matrix
57
 2.165005284825E+01
 2.752167999195E+00 1.312190560772E+01
 -3.625607675450E+00 -4.591806805952E+00 1.277274760849E+01
 -9.547645892034E+00 3.082997901322E+00 -2.082904674658E+00 1.662480994662E+01
 3.316418398444E+00 -2.243452653020E+00 5.357312909532E-01 -8.496129877366E+00 1.372315610605E+01
 -1.886135108040E+00 1.061695944559E-02 -3.034434164643E+00 7.327211985930E+00 -5.295424780512E+00 1.636400442701E+01
 -9.648998403603E-02 1.989456978277E+00 -3.436150921432E+00 2.362661634087E-02 1.090626529826E+00 -2.716774470801E+00 2.300075049639E+01
 -1.958830439507E+00 1.045241899640E+00 5.222303027037E-01 5.626028347426E-01 -1.500139288858E+00 -8.895098537188E-01 -3.001497746381E+00 2.166443830250E+01
 1.820831654535E-01 -7.784227516945E-01 2.189184879751E+00 1.003812928501E+00 1.823457574138E+00 -3.176389820863E+00 8.902250561168E+00 -1.234079750864E+00 2.362349484740E+01
 -2.367397632344E-01 1.702748569948E+00 -1.142961512260E+00 -3.946648677807E-01 -6.159926098712E-02 -2.427996541941E+00 -2.951269020685E+00 3.636527731081E+00 -8.056836679011E-01 6.252174680267E+01
 4.418628229089E-01 2.409873992001E+00 -1.066830793243E-01 -1.205714522675E+00 -1.608424633649E+00 -1.500757736437E+00 -5.791593040763E-01 -9.150969814329E+00 -4.602149030174E+00 4.744559351924E+01 1.154310120898E+02
 -3.382661306466E-01 2.687294019600E+00 -2.330179774860E+00 -1.899154986483E+00 -1.781562546687E+00 -4.100079269874E+00 -3.831320681663E+00 5.558114748684E-01 -2.370870885828E+00 4.536663450323E+01 7.616232327547E+01 8.878888431807E+01
 -2.766487060753E-01 -3.777856315504E-01 1.012498123811E+00 -1.931744966573E-01 -2.052513743129E+00 2.443075316759E-01 3.176766073484E+00 4.537142002138E+00 -2.190399904256E+00 -7.964106128401E-01 -6.128094290073E+00 -5.962393164115E+00 4.545955287209E+01
 -8.629314529182E-01 -5.526870837864E+00 3.267141913126E+00 1.269669417429E+00 1.469861954722E-02 -8.490676011175E-01 8.452890301273E-01 1.775521200412E+00 1.725363118544E+00 -5.974429777320E+00 -5.919414742511E+00 -6.831950074663E+00 1.876908709894E+00 2.472583941186E+01
 -4.378143788899E-01 3.752487768648E+00 -5.098233543115E+00 -2.567556542428E+00 -9.429759410003E-02 2.251094365882E+00 2.456294916152E+00 -2.162634815549E+00 1.015339066319E+00 -2.220532413086E+00 1.334603286059E+00 8.336752429479E-01 -8.670269690663E+00 -7.490814111131E+00 3.344038810143E+01
 -4.794870668805E+00 1.435098201137E+00 6.391515351366E+00 -4.599283402868E+00 1.033583932048E+00 -2.643240963115E+00 -9.831372830986E+00 -4.622109389188E+00 -6.233606105862E+00 2.660162306122E+00 9.321381085972E+00 9.072265522959E+00 -1.079220001679E+01 -1.244497696105E+00 7.851275871114E+00 4.330129624969E+01
 -1.628523092282E+00 6.887318562315E-01 1.663465881813E+00 -1.049333435994E+00 -3.985125071240E+00 3.641298385593E+00 -7.920673094976E+00 -5.534400048366E+00 -5.157412892954E+00 3.310114348037E+01 6.123662390556E+01 5.091222182578E+01 -1.021314273137E+01 -1.885827941987E+01 1.174321933184E+01 2.493723154674E+01 8.113184256268E+01
 2.801220894410E+00 -3.668724734238E+00 -3.399228391233E+00 -5.442180682994E+00 -3.703217785613E-01 -9.855686621339E+00 3.146117534349E+00 7.893125439949E-01 -3.111944106951E+00 -2.997961252516E+01 -3.501627584810E+01 -3.031168307109E+01 5.798600201749E+00 1.112285793563E+01 -1.478921160613E+00 -2.020238554805E+00 -2.706046253679E+01 7.854299947713E+01
 -8.808440637348E+00 -7.668099565928E+00 2.489472714029E+00 -2.192654040557E+00 4.312857130721E+00 -1.729011562759E+00 -7.757959395821E+00 1.915227689796E+00 -5.431774602406E-01 -5.476306771374E+00 6.158604094523E+00 1.504906813367E+01 -1.120036346635E+01 -2.498871747783E-01 -5.562797025920E+00 4.012771999990E+00 1.002720019242E+01 -2.026074482349E+00 3.797861294056E+01
 -7.077310871683E+00 -6.277816373979E+00 9.028383372632E-02 6.485954040635E+00 -1.080132527731E+01 2.189911097188E+00 1.233936735718E+00 -4.387405124409E-01 4.263507195304E-01 -7.552330390037E+00 -1.621711286507E+01 -7.664477419075E+00 5.930180544212E+00 4.037008605265E-01 -3.642499552174E+00 -4.704384458477E+00 -1.458733367071E+01 -4.284520706041E+00 2.995914532640E+00 3.841683306889E+01
 3.463251619981E+00 2.368257651946E+00 -1.690882500882E+00 -2.158728535999E+00 6.602275531032E+00 -2.900314680767E+00 6.988983648274E-01 -6.907072461801E-01 -2.112020379966E+00 3.770060669160E+00 3.580330311863E+00 -1.531469854819E+00 -8.489556508735E+00 -4.498063790678E-01 -1.083077954308E+01 -6.473901202627E-01 -8.106443390389E+00 -2.321138326503E+00 2.085566347434E+00 -6.850658858704E+00 3.334030374194E+01
 7.631053021647E-01 4.173690696659E-01 -1.655043747230E+00 -1.248973308338E+00 -1.400895035332E+00 -9.352241446423E-01 1.423080452216E+00 2.147411404401E+00 1.181593758902E+00 9.959115049014E+00 1.172935517705E+01 9.822102355315E+00 -1.579075922612E+00 2.584999795486E+00 1.164762846594E+00 -2.090833337530E+00 3.261727266650E+00 -1.103056975303E+01 5.961217007200E-01 -1.272829796737E+00 -1.485127711515E+00 2.535415976969E+01
 -6.927953830189E-01 7.579474207058E-01 -1.357483805202E-01 -3.673049224727E-01 -1.315728801418E-01 2.103635845326E-02 1.401140225565E-01 1.943103717425E+00 -1.168424919794E+00 -4.271299463850E+00 -6.049661466578E+00 -4.129599465262E+00 1.232901676946E+00 -2.269130495169E+00 -1.059400419531E+00 7.749692981305E+00 1.118210764767E+00 1.171696991818E+01 -8.435254914383E-03 -3.674072763065E-01 1.086080310106E+00 -4.204989124782E+00 2.306120924214E+01
 1.486097927020E+00 -1.515556871331E-01 3.554253525225E-01 5.763941364243E-01 -1.966114402916E-01 4.451550480709E-01 1.429271748342E+00 1.138343579140E+00 3.044939581619E+00 2.266484371708E+01 1.110268770610E+01 1.311495972501E+01 2.050610084426E+00 -5.974973208249E+00 -1.378395457333E+01 -2.056095571508E+01 -7.511884163266E+00 -4.333688815268E+01 -4.217531097675E+00 7.056060694191E+00 8.246232935695E-02 1.553134088187E+01 -7.099698604755E+00 7.014360438147E+01
 -2.168356633139E+00 -1.493338921971E+00 1.991219530430E+00 1.190161131710E+00 -4.641730131149E-01 1.219932403125E+00 3.157883405705E-01 -1.605491873807E+00 -1.337723467991E+00 -2.386382170390E+00 -1.921186761360E+00 -3.796995459723E+00 -9.805526151825E-02 3.101455233801E+00 -2.554956743528E+00 -9.381621450634E+00 -1.010756118614E+01 1.050617758526E+01 -7.539564731642E-01 4.499336283631E-01 1.713581641733E+00 -1.047426312127E+01 3.887732510517E+00 -4.462554828390E+00 2.619475560841E+01
 -2.200020855750E-01 6.392249646669E-01 1.517971138542E+00 1.613387811523E+00 -6.816500299250E-01 -4.782484291044E-01 -2.946335643010E+00 -2.515256097367E+00 -4.572964317267E-01 1.196976300612E+00 2.806693306343E+00 3.041422841077E+00 -1.559625509598E+00 -4.657736541970E-01 9.638335329418E-01 8.140581268604E-01 -5.929722970487E-02 1.488295061891E+00 -1.669444783387E+00 -9.081530130451E-02 4.563595011180E-01 9.279229350567E-01 4.604271799601E-01 -1.854464202697E+00 -6.036424626807E+00 1.937588875212E+01
 2.174610522158E+00 9.812409722460E-01 -9.931133259865E-01 -3.224966515065E-01 1.122042717101E+00 5.547049306119E-01 -4.586565766500E+00 -1.147204278861E+00 -1.224027281713E+01 6.737960689180E-01 -3.858405355106E+00 8.954257177801E-01 1.815342020632E+00 -5.439474844875E+00 1.297572664674E+00 6.352737595604E+00 7.256200279070E+00 -1.132610899488E+01 5.320499061614E-01 7.212447058364E-01 -2.222897069005E-01 3.911754828977E-01 1.457004936908E+00 1.440764082964E+00 -7.270541051101E+00 2.321634261987E+00 2.854908271308E+01
 -8.988933249889E-01 -1.504004488274E+00 3.080980694922E+00 -1.723470722284E-01 2.934369256745E-02 2.810689266152E-01 5.917511062749E-01 5.987871093787E-01 -5.435082179078E-01 -9.859758671977E-01 -2.204506289260E+00 3.910098913821E-01 -1.377604787402E+00 -6.445691530018E-01 -6.224358717830E-01 -9.676823546673E-01 -8.523060828182E-01 -2.666564159284E+00 1.402571147778E+00 1.278739119373E+00 -1.052961051597E+00 -5.387395782623E+00 -3.107439204306E+00 2.628716459539E+00 -2.224625001738E+00 2.303996035699E+00 -1.076665567145E+00 1.538188218062E+01
 1.975835126796E+00 5.856600864314E-01 -1.223142433218E-01 -1.144527415479E+00 1.108173140570E+00 -2.305947094311E-02 3.201602031817E-01 -1.680124484528E+00 3.705502603302E-01 -3.803176455473E-01 2.026942351753E+00 2.020547705545E+00 1.022097446748E+00 -2.371583680668E+00 1.831604229364E+00 -1.999607154911E+00 1.445651423529E+00 -1.282798508397E-01 2.254871361024E-01 -7.406519374517E-01 1.271422767772E+00 -6.867533413458E-01 -7.606677370699E-01 -5.187787032441E-01 1.809712558620E+00 -6.113926614976E+00 3.112252424751E+00 -6.623945759914E+00 2.546920396654E+01
 -1.180443645841E-01 4.306265521279E-02 -1.215488731852E+00 2.631570954095E-02 -5.277356704657E-01 8.726754293547E-01 3.318704070551E+00 1.580462732414E+00 -1.399567008146E+00 1.626698476258E+00 1.421179419742E+00 2.555682812711E+00 3.116470335367E-01 1.688189257390E-02 8.009752789157E-01 -5.123862855282E-01 1.506323737013E+00 6.128569545522E-01 -2.282611796231E+00 -1.206601944932E+00 1.418217173583E+00 1.044053946428E+00 3.024182247533E+00 -2.959186945133E+00 -1.024063208393E+00 2.868827481678E+00 -4.028055213905E+00 2.866995107324E+00 1.079815286911E+00 2.276183722255E+01
 3.405616360583E+00 -3.317098204926E+00 -2.045643741524E+00 -3.248155471773E-01 4.075039254233E+00 3.095907907975E+00 -2.923951940691E+00 4.992936387038E-02 -1.981920823744E+00 -5.195189342322E+01 -8.440886600039E+01 -7.491584692879E+01 -1.866111415823E+01 -5.792236997251E-01 9.777776471783E+00 -1.413774410729E+01 -4.751394111980E+01 2.999889154046E+01 -1.018833499421E+01 6.725366990504E+00 1.842990157745E+00 -1.748869791696E+01 -1.385116621888E+00 -1.350764727682E+01 2.806459294400E+00 8.411398444322E+00 4.944779905446E+00 1.063828386207E+00 -2.761689736320E+00 -1.665365604763E+00 1.285838626998E+02
 2.555596358216E+00 -5.347270685454E+00 -1.807355430440E+00 1.635166837046E+00 3.117832183862E+00 5.714381645945E+00 1.301875272171E+01 -2.180464920273E+00 8.530972194526E+00 -7.113251821868E+01 -1.205556628582E+02 -1.111834951042E+02 8.630477231473E+00 1.695328354029E+01 -5.386736109855E+00 -3.884834344164E+01 -1.057634863136E+02 4.667973775066E+01 -2.013410152966E+01 1.508966137400E+01 1.630845273356E+00 -1.324746710140E+01 -8.318995000952E+00 -1.038426838592E+00 1.825584197816E+01 -8.969563586889E+00 -1.178929027096E+01 2.708721101922E+00 -1.335678731406E+00 -3.408303284459E+00 1.165183611443E+02 2.369650888425E+02
 -3.507893946512E+00 -4.311227167957E-01 3.973469759243E+00 3.046663739951E+00 1.663502531210E+00 8.975645533636E-01 -7.501698302661E+00 -4.645810683702E-01 -4.568295164810E+00 -3.974806063046E+01 -5.125842427040E+01 -4.768863823631E+01 7.574850435347E+00 3.905674691977E+00 2.178289739222E+00 9.776347634150E+00 -1.982678062282E+01 2.387281871509E+01 -1.040147442629E+00 6.069641104155E+00 -1.044603751481E+01 -1.748223325616E+01 -2.030716894936E-01 -3.502817920020E+01 5.329603747057E+00 -7.363451680574E+00 -1.837850349673E-01 1.448332611481E+00 -1.451477203184E+00 -1.665745977256E+00 4.505995850525E+01 5.798917157745E+01 7.550668646534E+01
 1.272298086194E+00 1.487365372745E+00 -6.354309015075E-01 -6.101587645968E-01 1.540287076322E+00 -9.549009039223E-01 -1.069511031350E+00 4.390238297712E-01 2.984742580670E-01 -1.096687255164E+00 -4.532725998054E+00 -2.961741447802E+00 -1.446450918416E+00 -3.064502034941E+00 -2.308857197195E-01 3.168583087669E+00 2.644080382811E+00 2.174781382074E+00 -8.110590701603E-01 -2.811546533236E+00 8.070883683951E-01 -4.043057244338E+00 4.254218367615E+00 -1.335075443982E-01 -1.259811611398E+00 1.277560865294E+00 1.455659089426E+00 -1.356386222857E+00 1.024601712284E+00 -2.686794689030E+00 4.322897527724E-01 -2.864474672314E-01 1.171601319402E+00 2.636024529016E+01
 8.940481691496E-01 -1.090762393713E-02 7.888131866522E-02 -1.019823820446E+00 2.331402130301E+00 -1.744525806988E+00 -1.053859354194E+00 3.372061314402E-02 7.566122541849E-01 -1.006239061771E+00 -1.817538256454E+00 -9.212973277852E-01 -1.828331305252E+00 -8.289732404851E+00 1.392836123225E+00 3.179760774883E+00 5.420874413315E+00 -6.102977346207E+00 3.623841074333E+00 2.410637314977E-01 -4.580589167596E-01 6.030122594241E-01 -7.834541525793E+00 3.473559961425E+00 -3.584992548091E+00 1.081799321731E+00 3.947433310505E+00 1.184525098363E+00 -2.920884353867E+00 -8.463024881978E-01 1.703732975487E+00 -5.305746060720E+00 1.444622556165E+00 5.166533284247E+00 2.322309896100E+01
 -2.230988509654E-01 -1.500863194052E+00 7.557916909590E-02 5.811293629933E-01 -7.540462885012E-01 1.221765078990E+00 1.220037727712E+00 2.460749174954E+00 -6.785131118284E-01 -2.159860466502E+00 -3.879461729129E+00 -3.620368638063E+00 6.262707125504E+00 9.312750433374E+00 -1.014624752887E+01 -6.170081246372E+00 -1.115763482110E+01 2.862519059517E+00 -2.929572033438E+00 1.305020274462E+00 1.073621171854E-02 2.818595894820E+00 -5.670629447928E+00 3.352410653631E+00 6.879024919750E-01 -1.148737037313E+00 -1.938800228445E+00 -6.222146730739E-01 1.003716351916E+00 -3.710093934466E-02 7.019040179400E-01 1.505447663384E+01 -1.319356480413E+00 -2.582418584268E-01 -3.759707958144E+00 2.219730172901E+01
 7.928538456974E-02 3.448643925365E-01 -2.087219233990E+00 2.050502053728E-01 -7.022344869501E-03 -3.240770190742E-01 -4.830775440152E+00 -7.784918604860E-02 1.929425371088E+00 -3.561316129142E+00 8.950447724377E-01 9.125721209511E-01 -7.237860919557E-01 1.002125705109E+00 -1.122910195367E+00 1.366422976263E+00 -2.737611933778E+00 -3.109187026031E-01 1.533747995763E+00 1.310368972862E+00 -2.317767789956E-01 -4.346488490367E-01 -3.274546402115E+00 4.322906938446E+00 -3.131561766869E+00 -1.145168632697E+00 -1.211493830610E+00 -1.328992777445E+00 5.094738469337E-01 -1.613629804036E+00 -7.179657986423E+00 6.632854176279E-01 1.750516141180E+00 2.437670904094E+00 -7.360134895791E-01 1.284522496232E+00 2.832376336361E+01
 1.427717552215E+00 1.432317785591E+00 -1.147584022385E+00 -7.308337594926E-01 -8.936709767169E-02 -1.373686550262E+00 -5.516427848500E-01 -1.293417588287E+00 1.031640420149E+00 2.130232586644E+00 -3.826216407995E-01 -1.716185105402E+00 -9.723437549200E-02 -8.621631076049E-01 -1.517415415422E+00 -3.669031203303E-01 2.040016910209E+00 2.750530402572E-01 1.113871860863E+00 -5.394295594890E-01 -1.441673790863E+00 -1.026329575916E+00 -1.892142701632E+00 4.517127856113E+00 -2.210335784400E+00 -4.885333417573E+00 -1.074522052688E+00 6.273457573488E-01 4.483125274219E-01 -1.194674191529E+00 -2.391072740475E+00 -5.349787391090E+00 -1.447423295797E+00 -1.365241045488E+00 3.224920614057E+00 -1.286374079699E+00 -2.655128704837E+00 1.759612846609E+01
 6.088789935925E-01 4.778715001886E-02 -5.159517037409E-01 1.758826182300E-01 -1.055497040307E+00 -1.029706982278E-01 -1.046981579480E+00 -2.970302726857E-01 -2.507401108432E+00 5.273441172170E+00 3.431048319680E+00 -5.900613972909E+00 1.215482737064E+00 -8.031822515140E-01 -8.188834320114E-01 2.756821804952E+00 5.538846078881E+00 -2.652124530553E-01 2.346604614360E+00 4.805373402405E-01 -1.680166296178E+00 1.572935191483E+00 1.401525435778E+00 2.854859232686E-01 -2.497222352879E+00 -2.040652447978E+00 -7.636842384409E-01 -5.267248426962E+00 -1.024325494203E+00 -4.294182338610E+00 -4.314703431548E+00 -9.359973949425E+00 -4.729465926864E+00 1.388530174625E+00 1.002655941898E+00 -9.224421610147E-01 -3.783037418162E+00 4.288733660112E+00 2.270444719847E+01
 -2.662311386059E+00 1.143007902773E+00 1.242727205451E+00 3.793197343146E+00 -7.757811297769E-01 -5.575375119074E-01 -4.162281936706E-01 -3.270861516143E+00 6.557517959456E-02 2.152776961276E+00 5.991191217673E+00 5.382646903045E+00 1.173801730267E+00 2.844655236406E+00 9.076852127100E-01 6.575365695638E-01 3.890386533807E-02 -1.540396474703E+00 -1.157640226520E+00 -2.775275854177E+00 -5.761134596708E-01 4.058581800055E+00 -2.367205461476E+00 -5.128824804752E-01 -1.519489980466E+00 -2.657306231201E+00 1.320998487156E+00 1.107818157587E-01 1.358828810629E+00 -9.729441118015E-02 1.269093460655E+00 -3.687056869398E+00 -1.872068537062E+00 -1.429143367015E+01 -3.531647748105E-01 -3.171302119456E+00 -1.183584933700E+01 4.737646743001E+00 5.112622816606E-02 4.879179119890E+01
 -1.433180994325E+00 1.217643648584E-01 -1.038769376775E+00 5.174266898458E-01 -1.399929806612E+00 1.625120041839E+00 -6.453836159198E-01 4.221277194601E-01 -2.350308436247E+00 -5.714133564307E+00 -9.983768781141E+00 -8.644585292412E+00 9.307051823509E-01 2.877667715365E+00 7.285141023575E-01 3.703908820472E+00 -1.909254225758E+00 5.398812188161E+00 -1.295186458565E+00 1.588080402604E+00 -3.164553838339E+00 -6.856061449729E-01 -1.598371824417E+00 -1.051622735297E+00 -1.609718452844E+00 1.764159327028E+00 1.401404494184E+00 1.701946106351E+00 -6.154917848366E+00 -1.183034863262E+01 5.438775836918E+00 -7.931598795880E+00 1.439827494122E+01 -4.762898794082E+00 -5.008563279165E-01 -3.638475465082E+00 9.922115901821E+00 -3.712462179708E+00 4.067499568926E+00 -2.318757070618E+00 6.161077833916E+01
 -4.494172809932E-01 1.912331371620E+00 -9.802264197897E-01 2.263011762548E+00 -5.919490503215E-01 -2.122895553319E+00 -2.135030886865E+00 -4.467939541001E-01 -2.238524240292E-01 2.012592746674E+00 2.933062767494E+00 -2.318813935670E-01 -2.725601641642E+00 -2.063302210578E+00 1.310915778015E+00 2.187493340540E+00 4.942438189338E+00 -2.190417654753E+00 -1.300876894840E+00 1.408454194711E+00 1.143776986076E+00 3.351062647745E-01 1.495805681871E+00 1.414765642400E+00 9.751847516744E-01 -3.984468056866E-02 5.839223050895E-01 1.988454381913E+00 -7.225426118305E+00 -1.101810546537E+01 -2.186865614766E+00 1.964565666756E-02 3.637654782031E-01 -4.692434360803E+00 -3.359150400291E-01 -4.004242848565E-01 2.707815727691E+00 -1.059346526396E+00 2.798420811276E+00 -6.940263404209E+00 1.644378074892E+00 4.159054612900E+01
 1.549707331477E-02 8.231437632725E-01 2.184423195312E-01 -3.686077672435E-01 2.921228380055E-01 1.049989061853E-01 -2.201428381624E-01 1.042483870296E-01 1.090921721992E+00 -6.419434268416E+00 9.470420131875E+00 2.667899323052E+00 -2.249059908963E+00 -1.882968354309E+00 2.086972290388E-01 4.266394808883E-01 3.123701735022E+00 -1.847680698547E+00 -2.261512292763E-02 -2.373098703133E-01 -1.513859695174E-01 2.562032260132E-01 1.170480755964E+00 -8.679754454306E-01 6.436576638478E-01 5.698453185550E-02 -2.436028521403E+00 -3.288300915790E-01 -7.474247560932E-01 -1.326469161395E+00 -6.948846732669E+00 -5.792573187034E+00 -4.691056708906E-01 -1.509987519960E+00 -1.316485808459E+00 -1.443145687112E+00 3.126129936448E+00 -8.554470985882E-01 1.141711247118E+00 -4.233016445835E+00 5.977183345389E-01 7.131135556527E+00 2.217930872633E+01
 8.843363023759E-01 4.152658928119E-01 2.611548562013E-02 -4.144926183551E-01 -9.662988479732E-02 2.893192480521E-01 5.387597281532E-01 -1.197245659861E+00 1.927883960510E-02 3.601669967863E+00 -3.471510961390E+00 -3.973468912022E-01 -3.635734350496E+00 -3.636021800551E+00 3.236063946258E-01 2.876030720612E-01 -8.301152788587E-01 4.088941312232E-01 -3.837263346705E-01 -3.114286108690E+00 1.408892056302E+00 -1.118214365435E+00 -1.234888818866E-01 1.278435289047E+00 1.522280736857E+00 -1.599159576802E-01 8.283830316738E-01 1.173978592380E-01 1.971366552534E+00 1.210182570375E+00 5.680299326862E+00 -1.104218398954E+00 -1.127957719273E+00 1.266647003417E+00 1.072861113603E+00 -3.674174029423E+00 -2.369067956599E+00 -2.586426300288E-01 -8.809329851887E-01 1.698543108857E+00 -2.399372916901E+00 -4.999168144710E-01 -3.961695414028E+00 1.556907171780E+01
 2.668123690853E-01 -6.708755609615E-02 -5.337353062328E-02 -2.358969072454E-01 -1.448545600915E+00 1.358455952480E+00 3.163315862650E+00 -1.293866804241E+00 5.991684927275E-01 -8.062017011947E-01 4.970794675885E+00 1.805765295189E+00 -2.355452624453E+00 -1.269074881644E-01 1.013706325551E+00 -3.070413063058E+00 -2.657089175875E-01 -1.955715508089E+00 5.690375158126E-01 1.704528482378E+00 -2.326689178263E+00 1.429196400263E+00 5.313920210004E-01 3.100510641749E-01 2.221767301529E-01 -5.031418983786E-01 -1.478517045401E+00 1.043392882519E+00 -2.119104527069E+00 -6.963742539336E-01 -1.962614579801E+00 -4.948124085627E+00 -5.022322794225E+00 -2.158500782070E+00 -1.698570474403E+00 -4.010985304841E+00 -7.255620294813E-01 3.289861816534E+00 2.533029881000E+00 6.615012833846E+00 2.421507420570E+00 -9.580111433226E+00 -4.918175306504E+00 -2.385184965023E+00 2.793603044832E+01
 -8.689511015683E-01 1.824931369789E-01 -4.495988929512E-02 -8.276429746145E-02 -1.055070861811E+00 -7.286337757499E-01 -1.198007505762E+00 -1.789492683122E+00 -1.066504430148E+00 1.152401641782E+00 1.161655494575E+01 8.315775584083E+00 -1.758053359570E+00 -7.134767685024E-01 2.415343082981E+00 3.712412093424E+00 7.606652531607E+00 2.420959231352E+00 3.122264154774E+00 -1.752292344306E+00 6.733426736242E-02 3.022235343542E-01 1.041723851774E+00 -5.922578456274E+00 1.847986998824E-01 -1.796974509091E+00 3.188043842295E-01 -1.912978987907E-01 1.686839428714E+00 -2.372540228362E-01 -6.848856049112E+00 -1.392028502533E+01 -5.087591104119E+00 6.655539298982E-01 -8.883433688745E-01 -1.790488503111E+00 -1.671147061759E+00 5.958172078748E-01 1.294294861336E+00 -6.106214909139E+00 -6.936691965637E+00 -6.567288231591E+00 -1.713167619052E+00 -1.797348313792E+00 2.315939586764E+00 1.779114957874E+01
 1.427655106478E+00 -1.013121406179E+00 -1.151086290924E+00 -1.724389214590E+00 1.684138925687E+00 -1.515408864767E+00 -1.884842785393E+00 -1.060146604986E+00 2.650293156314E+00 -3.655982678650E-01 -1.384910121722E+01 2.228059217441E+00 1.134644482459E+00 7.068358140596E-01 2.014642555306E-01 -1.020962167015E+00 -4.257575815971E+00 3.617006240012E+00 7.934771272570E-01 -5.998222711977E-01 1.052509451485E+00 1.310798621283E-01 8.586577111832E-01 -1.239498778031E+00 2.294259911289E-01 2.989387176348E-02 -9.192317058759E-01 4.246186976501E-01 -1.395313734541E+00 1.141813257560E+00 1.271217782882E+00 6.171925993418E+00 -9.174861537387E-01 1.528376846977E+00 -3.384926136353E+00 2.101248352059E+00 -3.240324598498E+00 -1.602038066110E+00 -3.849434342608E+00 -6.104764691331E+00 -1.035110994989E+01 -9.072987314003E+00 -8.430364904249E-01 -1.113894181564E+00 -6.463353434487E-02 6.310449377743E+00 2.844385025356E+01
 9.966199092136E-01 -9.784868840759E-01 -5.972229696333E-01 -1.581124576400E-01 6.472638965675E-01 7.391588853343E-01 8.420099047865E-01 6.816849928951E-01 3.133295789973E+00 -2.711073534376E+00 -1.276197504874E+00 -9.368428437501E+00 2.739889229343E+00 2.147094533871E+00 6.780263991625E-01 -4.880119329985E+00 -7.946488434633E+00 6.732065966339E-01 -2.015138316957E+00 1.831771295482E+00 -8.424239180761E-02 6.992235518995E-01 -5.971255484208E-01 2.047923522781E+00 9.970311419276E-01 2.868309040200E-01 -2.198883046557E+00 1.401415226704E-01 -2.090805837445E+00 4.789329573113E-01 5.035438003355E+00 1.414307748007E+01 2.525048909159E+00 1.351117794769E-01 -2.666772578939E+00 1.386090520831E+00 -9.617656257006E-01 -1.154266586672E+00 -5.036271365503E+00 -6.156233692379E+00 -5.529978585004E+00 -7.047622282275E+00 -2.338789654159E-01 -3.909132629137E-01 -8.883350240394E-01 4.938271954796E+00 3.833204692517E+00 2.362055618021E+01
 1.507208877796E+00 1.028158408427E+00 2.532550529715E-01 1.223844923854E+00 -8.541642792530E-01 -4.610019038853E-01 1.067249423200E+00 2.417762296691E+00 -1.410532385746E-02 6.851805283938E-01 -1.558603865900E+00 1.627783255421E-01 9.881517855364E-01 1.903331808880E-01 -1.067664742442E+00 -2.960009955300E+00 -2.827981199589E+00 -8.126232508550E-01 -5.493193400857E-01 2.019380772525E+00 3.501731336977E-01 -2.489158517062E+00 -2.362456066074E-01 1.861772200133E+00 2.432128216241E+00 5.592010763731E-01 -1.001568267612E+00 -9.615072499816E-01 -4.013250674969E-02 2.208038923856E+00 -1.810231935743E+00 2.004149659680E+00 -2.024027692152E+00 -1.137989069612E+00 -3.967867605870E-01 -7.475246395995E-01 4.870272462681E-01 -1.252135962605E-01 8.277622187315E-02 -1.096653285761E+01 -1.160789376750E+01 8.303035629794E+00 -1.294554789348E+00 1.276939328145E-01 -9.793585355312E-01 -1.827957547061E+00 2.281198411807E+00 4.690837555891E+00 2.396039229251E+01
 -9.568503503797E-02 -1.175347683018E-01 1.680063212559E+00 -9.047540984728E-03 -7.116755502389E-01 7.935207706784E-01 -2.529461526620E-01 1.558550102218E+00 6.218572154164E-01 1.106053023206E+00 6.472895095105E-01 4.500901465223E-02 4.323375172202E-01 3.447332839028E-01 -5.358356499216E-01 8.685137675281E-01 -1.535977911110E-01 -2.079481561718E+00 9.198814209495E-01 3.386467381277E-01 6.070258054049E-02 -1.263013936028E+00 1.419439953788E+00 -1.374119796739E+00 3.131915024513E-01 -3.650143564907E-01 5.546394585538E-01 4.702594905779E-01 -2.957428935488E-01 2.640375903964E+00 -2.522479014137E+00 -2.440980945562E+00 -5.085309009156E-02 -2.376812130900E-01 -7.422511780372E-01 -1.631160075464E-01 -1.271199049061E+00 -2.876494634992E+00 1.255783339093E+00 -7.684066248180E+00 -9.108481218925E+00 6.963834300249E+00 -6.317502759778E-01 3.322380666666E-01 -9.872913801007E-01 1.383479334048E+00 -2.116420391149E-02 -1.034255900180E+00 1.103652739234E+01 1.359510332040E+01
 -1.736069387839E+00 8.238907196366E-01 1.372326959554E+00 8.098764546640E-01 -2.516568269748E-02 1.472133443877E-01 -7.970554455445E-01 5.734010272628E-01 -2.544064522882E+00 2.899462204983E+00 -6.443635361035E-01 1.370730094039E+00 -7.272962899250E-01 -6.703595754087E-02 3.470741465428E-01 1.754012864236E+00 3.615007682646E-02 5.677372110822E-01 -9.485162404629E-01 -4.608367429864E-01 6.470588404304E-01 -1.682609978467E+00 -2.118844289177E+00 -2.034548489811E+00 3.761272408659E-01 -8.502207852667E-01 1.415262773155E+00 -2.834173795115E-01 1.829500384164E+00 -3.005734952636E+00 9.800589734237E-01 -2.300091316159E+00 -9.351240716641E-02 1.104610496316E-01 2.083723434066E+00 -2.107767228991E+00 1.658361357047E+00 -1.969900947390E-01 1.414181015149E+00 9.486559540879E+00 4.141438147981E+00 -9.648918554119E+00 9.818390365443E-01 7.680096915080E-01 -1.596100440423E+00 3.150649559953E+00 2.656746854892E+00 -7.548086055569E+00 -8.925451786191E+00 -7.388590230824E+00 2.224852832699E+01
 -3.260339379274E-01 -1.347621830929E+00 -7.782089848689E-01 -1.357408000558E+00 -6.638530900131E-01 1.968470162025E+00 1.045509037569E+00 -1.228175263746E+00 3.100806241351E-02 -3.224008966707E+00 7.563301216838E-01 -1.259864765245E+00 -4.083677248631E-02 8.622370928978E-01 -2.673239492660E-01 8.005292270839E-01 6.603014722059E-01 1.449551044062E+00 5.817419351802E-01 1.697327829975E-01 9.747192066746E-01 2.237696992925E+00 4.774019061157E-01 -8.979738364532E-01 -8.516493610553E-01 -1.090530818618E+00 -1.005699820768E+00 -3.201846972886E+00 5.584179057043E+00 -1.401931744446E+00 8.350284458646E-01 1.198283674205E+00 1.429513577494E+00 -2.352329570675E+00 -2.457744539010E+00 5.790321757487E+00 -1.145365961022E+00 1.336196595863E+00 -1.982603754346E+00 -2.222051230780E+00 2.447958947534E+00 -1.694905484625E+00 8.163481085262E-01 -2.061590063700E+00 8.247288231285E-01 3.474821198763E-01 -1.434880791585E+00 -1.054152778527E+00 -1.017097319852E+01 -2.661336017677E+00 -3.913976936587E+00 1.786206907041E+01
 -5.658042204054E-01 -1.039719440549E+00 9.936223907065E-01 -9.679466081466E-01 1.696089014622E-01 -7.878467568466E-02 3.056123536252E-01 -1.648596508424E-01 -2.478454173688E+00 4.190072831871E-01 2.199753527600E+00 2.714541041992E+00 -9.252751618093E-01 1.902197188696E+00 1.748017953436E+00 1.031493501590E+00 1.844838750272E+00 -9.524693466484E-02 -9.674830739468E-01 -1.662754427807E+00 -8.063027689911E-01 1.521369768636E+00 -7.576067235189E-01 -1.932503504147E+00 -1.495693104635E-01 -1.312575393348E+00 1.285288271822E-01 4.277564993799E+00 -7.306213598103E+00 3.076767358340E+00 3.725299234589E-01 -2.000008896711E-01 7.338827989905E-02 -4.726832747434E+00 -3.968728138663E+00 4.402461930910E+00 -1.058773938828E-01 -9.464619562984E-01 -5.808685048002E-01 2.692121540943E+00 -8.133599617691E-01 2.663837035032E+00 6.076404697134E-02 1.753741122059E-01 1.220056808658E+00 -1.664794869576E-01 6.335701272393E-01 8.824783846407E-02 -3.443272123686E+00 -5.084932617642E-01 -1.768722962335E+00 -6.878721637302E-01 1.734425259804E+01
 2.468431975247E-01 5.200685498730E-01 -1.404857412934E+00 -5.865137728794E-01 -5.057770875658E-01 5.474500220880E-01 -5.505115258785E-01 4.359928349881E-02 6.537812126541E-01 -7.691825266171E-01 -2.587182400837E+00 -2.425175361130E+00 1.612316248422E+00 -3.969382030718E-01 -2.081024782916E+00 1.489012890354E+00 -1.338708607955E-01 2.500866813641E+00 1.474882083449E+00 1.260392484512E-01 -1.073271203765E+00 -5.303377339791E-01 1.275923541069E+00 1.407244839188E+00 -1.437196666531E+00 1.524380846909E+00 5.600839966258E-01 -1.600865148628E+00 2.794415680265E+00 -1.190487293595E-02 1.672027069707E+00 6.315225175323E-01 2.899212342759E-01 5.297203551026E+00 3.240148928201E+00 -4.369907160525E+00 -1.283988053478E+00 -6.573345252897E-01 4.210969698214E-01 -3.992856617282E+00 1.865113386992E+00 -8.386172219624E+00 -7.746946352968E-01 -4.058782903025E-01 -1.503010340846E+00 8.486247613720E-02 -1.900522220739E-01 5.405096055781E-01 -2.686650094133E+00 -1.322063019776E+00 -1.095413027528E+00 2.033717480790E+00 -1.638465451855E+00 2.539541491661E+01