#BIOSYM hessian 1
@Type: Hessian Update
@Units
 distance: 	A
 energy: 	Kcal/Mol
#header
@natom 19

#label
L1      L2      L3      L4      L5      L6      L7      L8      L9      L10     L11     L12     L13     L14     L15     L16     L17     L18     L19

#element
Li Li Li Li Li Li Li Li Li Li Li Li Li Li Li Li Li Li Li

#matrix
57
 2.256249835264E+01
 -5.765769160526E+00 4.148247549792E+01
 3.358951648836E-01 4.598467707636E+00 1.815918692302E+01
 -2.272582068097E+00 4.195691015477E+00 1.727958004824E+00 5.757291667181E+01
 -1.710947665968E+00 2.332068947804E+00 9.564250713678E-01 1.230907602263E+01 5.198887152624E+01
 -8.587277766899E-01 1.005734580437E+00 3.652890350414E-02 -7.875254858167E-01 3.483828004577E+01 4.131346075087E+01
 -2.290054447136E+00 -1.310633268347E+00 -7.023304755297E-01 -3.745157265423E-01 -1.173722767033E+00 -1.344423006119E-01 2.694176655278E+01
 -1.632948051274E+00 2.011151233614E+00 7.216892930685E-01 1.033581863225E+00 -1.816782401831E+00 -5.554661508360E-01 -3.081760455969E+00 5.115879073470E+01
 1.963614893211E+00 1.018220997285E+00 6.169264463424E-01 -1.443487001999E+00 -1.308060481398E-01 7.672513416964E-01 -1.352742472584E+01 -1.140508226784E+00 2.919097545408E+01
 -5.774041313349E+00 -2.318712206651E+00 3.487020401931E-01 7.678761467181E-01 1.434156260910E+00 -2.104257838207E-01 3.616206123782E-01 3.308060634001E-01 -9.348646408934E-01 9.685944088782E+00
 -2.816250692886E+00 -4.654149026390E+00 -1.038573070775E+00 7.484522091775E+00 5.225274462453E+00 2.087691359023E+00 -1.428742896200E-02 6.638093886321E+00 4.019250140538E-01 8.870719644312E+00 7.050142771226E+01
 2.887311594520E-01 -3.173278777402E+00 -1.060136908214E+00 1.824468935138E+00 2.501292317950E-01 2.229727822529E+00 -4.448708420701E-01 3.362381477681E+00 9.034818225155E-01 1.269489518936E+00 2.360764183181E+01 2.471181740442E+01
 2.193999738911E+00 -9.392834841263E-01 -3.586735733429E-01 2.295840721333E+00 3.026516800087E+00 3.658680474666E-01 1.547950874215E+00 -1.679873591095E-02 -1.442711740967E+00 6.615275045397E-01 -4.116788298702E+00 -6.442303170772E-01 4.185839340693E+01
 -1.639824783435E+00 1.926468804869E+00 -7.548392427205E-01 -4.511529191051E+00 -2.672387352869E+00 -1.630872773702E+00 -3.100264559579E+00 -3.510536609831E+00 3.162926554834E+00 -6.740120662874E-02 3.204589920966E+00 1.134385168241E+00 -2.359076738591E+01 3.213569417127E+01
 7.627949693349E-01 1.245051272455E+00 1.771307281084E+00 -3.978739318325E+00 -1.626600451556E+00 -7.388173584212E-01 4.259563264590E+00 1.098328981334E+00 -3.684681135190E+00 1.086204710592E+00 4.600855096003E+00 2.873832794394E+00 3.614473728227E+00 2.481159184824E+00 3.736750621788E+01
 5.578025966038E-01 -1.544163847719E+00 -9.884072158121E-01 1.945286452606E+00 1.312197776224E+00 1.983165509285E+00 -1.372404136358E+00 -8.460402312913E-02 1.924741163001E+00 -1.074169567698E+00 -3.528657954030E+00 -9.838795346621E-01 2.960804859298E-01 -3.813045078663E-01 9.008351573560E-01 2.867697807679E+01
 1.754233259997E+00 -6.761490882903E-01 -9.933409483070E-02 2.014824076590E+00 3.758576968068E+00 3.911972613441E-01 1.115053585619E+00 1.246160366165E+00 -8.550963127841E-01 8.392211019648E-01 -3.039834185448E+00 -2.222990404137E+00 2.639981654696E-02 1.874494747085E+00 -1.873833887663E-01 2.334145234017E+01 7.725285161395E+01
 2.867024196258E+00 -1.994016030251E+00 -1.756871393263E-01 6.320855557458E+00 6.625277626002E+00 1.120628684028E-02 3.150452332478E+00 3.261938209085E+00 -2.360812416019E+00 -6.425490614298E-02 -4.832707981062E+00 -5.174032390658E+00 -1.527721672728E+00 5.760292207624E+00 -1.065130110086E+00 -9.228965917707E+00 -2.109059645871E+01 4.438846860618E+01
 3.415635761261E-01 -9.457735995570E-01 -5.810944581135E-01 1.548678064548E+00 1.680619399229E+00 4.050942299632E-01 -1.386637521920E+00 -1.841214614295E+00 8.076115416122E-01 -4.156964742775E-01 -3.112600146269E+00 -2.942414675060E+00 -5.953998372856E+00 8.300405520043E+00 -9.015747907220E+00 3.280979199283E-02 -3.565632195423E-01 -7.798289251131E-01 2.365096826569E+01
 1.050608783160E+00 -1.756266733218E+00 4.736109119727E-01 3.177008426054E+00 1.439553950036E+00 6.261673928299E-01 3.544670306747E+00 1.534716136997E+00 -2.422518768828E+00 6.932054729248E-01 -6.943372382406E-01 1.435341684507E-01 2.048081653650E+00 -5.132003313009E+00 1.230409811319E+01 1.848871543571E+00 -1.505310796432E+00 -3.435557317438E+00 6.177160993367E+00 1.813582195834E+01
 -2.126253154282E+00 -1.434298596553E+00 -1.480790524940E+00 1.551740202327E+00 -2.491270543844E+00 1.209555352633E+00 -5.049971327598E+00 -9.114573309272E-01 4.753847983560E+00 -5.949838225559E-01 -2.988579014844E+00 9.644934018023E-01 -1.231957793195E+01 1.007791193193E+01 -1.797739679778E+01 6.480648871671E-01 -8.269187842882E-01 -6.842900636888E-01 4.315977545720E+00 -1.395668458203E+01 3.393624975513E+01
 5.668889363965E-01 -4.808628250448E-01 3.346731454846E-01 -2.508287845073E-01 -4.753521910484E-01 -8.505265304248E-01 1.823005042721E+00 -1.417104733368E-01 -8.343339761277E-01 1.263860356871E+00 2.383989429119E+00 1.919973811950E+00 -7.145070200599E-01 1.301125392171E+00 -1.359525565675E+00 -2.214578505421E+01 -6.415539644423E+00 7.670987027829E+00 -2.732267985813E-01 -2.361883216671E+00 1.102650857899E+00 2.786720129649E+01
 -1.428506317071E+00 4.867126680063E-01 2.311232685437E-01 -5.752893710781E-01 -1.608083058578E+00 -1.085821567483E+00 -3.787041820291E-01 -7.249088073208E-01 2.545147958942E-01 7.406033093458E-01 2.066855002084E+00 -3.739783956341E-02 -4.966822273689E-01 -1.672219620553E+00 6.015347256161E-01 -7.200184684787E+00 -1.343495601685E+00 4.166481690044E+00 -6.952047009146E-01 9.399832264032E-01 -1.866604438527E-01 1.232559942928E+01 3.225686470405E+01
 7.112194882399E-01 -3.335434980399E+00 -1.077436415880E+00 -1.926354681954E-01 5.137419673117E-01 3.284532332948E-01 -1.590772835172E+00 -5.676895106013E-01 1.953180114678E+00 -1.474885101017E+00 -3.409852533441E+00 -1.881671323414E+00 1.435165755910E+00 5.827937244440E-01 6.650365874043E-01 7.784280332928E+00 8.046443658411E-01 -2.175848092778E+00 -6.024524324179E-02 1.298129407424E+00 -7.507659828322E-01 -2.949357374475E+00 -9.668931770798E+00 1.762685202776E+01
 -1.245872540896E+00 4.612035521359E-01 9.918374219582E-02 -1.130663629296E+00 -2.243455299175E+00 -1.386301903805E-01 -1.282125802828E+00 2.536113025373E-01 9.459913614723E-01 -6.974252224644E-01 1.089844480329E+00 -9.603524140406E-01 -3.164603042511E+00 -2.829788301091E+00 1.892963989794E-01 -2.549840213181E-01 1.206465181522E-01 8.875865182359E-01 1.206501217346E-01 1.345612510971E+00 -8.069022162167E-01 1.038523705213E-01 2.939913055620E-01 -6.686165009893E-01 1.878454943747E+01
 6.435852240441E-01 -1.146895059605E-02 5.719220657197E-02 2.381412375489E+00 9.618235840891E-01 6.087385838855E-01 1.070320928640E+00 2.166295761293E+00 -1.049629398305E+00 -7.471030689579E-01 -8.182637013045E-01 -4.295373015275E-01 -1.832079894451E+00 3.370929553502E-01 -5.833705502613E-01 3.435692994511E-01 -5.937590878366E-01 -2.409653946017E+00 2.334112604037E-02 -9.626540871856E-01 1.021204642441E+00 -8.815528892201E-01 6.782742573906E-01 2.227449669539E-01 -1.003692638129E+01 1.948965637835E+01
 -1.220388543990E+00 9.764648443797E-01 8.013260966733E-01 -5.589655413524E-01 -1.003859691391E+00 4.051949187565E-01 -1.141990270466E+00 -8.168507201127E-01 -7.492528736562E-02 1.071849611434E-01 1.562828898371E+00 1.985933010007E+00 6.875980903524E-01 -2.172313623325E+00 2.502949693992E+00 -1.405892106609E+00 -1.011411544552E+00 -1.541449853805E-01 -1.344054399876E+00 2.503259869353E+00 3.050895123907E-01 2.356222901736E+00 6.934038252922E-01 -1.891302820004E+00 2.893207809665E+00 -6.415860083733E+00 1.707973046510E+01
 5.636501701445E-01 2.010326617505E+00 5.122474143368E-01 -1.207938114948E+01 3.196568125646E+00 -5.953211405233E+00 -8.746492544692E+00 1.448118014164E+01 1.011592758402E+01 8.687341459660E-01 1.643639382658E+00 9.635226904404E-01 -1.138069695565E+00 5.579106964195E-01 -1.908983938808E+00 1.080562734828E+00 -3.899367602866E-01 -8.253999361329E-01 1.308716652405E-01 -1.786460060685E+00 1.487132232532E+00 -4.705957126459E+00 -4.895333247114E+00 -2.790179290130E+00 5.155216748458E-01 -1.133581056789E+00 8.717174106309E-01 2.722219447677E+01
 -5.024890918916E-01 -2.701445903099E-01 -3.346774891078E-01 3.806160904786E+00 5.985367431588E-01 1.378278332676E+00 1.580577651424E+01 -2.014364924725E+01 -1.705883618115E+01 -1.709032860151E+00 -2.049859384013E+00 6.211591072417E-01 3.252922095073E+00 3.990933463807E-01 3.252672527663E+00 -2.156013973976E+00 1.354697099077E+00 3.586537832189E+00 -5.441566689653E-01 5.031422965225E-01 -5.668228351922E+00 -2.405595278228E+00 -6.381653789998E+00 -6.119478101177E+00 -2.474281340342E+00 -5.496892110552E-01 2.283738698902E-01 -1.570661571178E+01 3.809749006693E+01
 6.944207407910E-01 1.308353460885E+00 -4.355473719731E-01 -1.151758535332E+00 3.107348331753E+00 -3.295402327756E+00 1.123959365593E+01 -1.601594175387E+01 -1.064541916306E+01 -9.605096494190E-02 -1.650725357839E+00 -1.028903394820E+00 1.144301945860E+00 -4.172973702271E-01 6.680887954346E-01 4.767452303466E-01 4.538590459291E-02 2.444908549225E+00 3.211208001185E-01 5.240782051648E-01 -3.242580606099E+00 -3.799935828062E+00 -5.949012752094E+00 -2.307572823364E+00 2.612957843869E-01 2.442254762235E-01 -4.826971218381E-01 -2.379926944462E+00 2.000976306258E+01 3.579255240931E+01
 2.128764132427E-01 -2.576249207330E+00 -6.549350644310E-01 -2.664226403710E+01 1.723803012534E+01 2.628791256655E+01 -4.874149235619E+00 7.871519173257E+00 -3.791278804560E+00 -4.198702853555E-02 -3.794208761270E+00 -6.118197598376E-01 -2.696019721506E-01 7.117353940872E-01 3.601679283417E+00 -1.610817558358E+00 -1.719958746970E-01 -2.566193184878E+00 -1.696935992082E+00 7.491934226454E-02 -2.235175493188E+00 2.925876624625E-01 4.514700419774E-01 3.106756728273E-01 -1.108006296576E+00 -1.617061935757E+00 1.820270602995E+00 2.725355244021E-01 1.320205113866E+00 -2.680907284110E+00 4.316215879987E+01
 -6.467432036311E-02 1.558128506640E+00 5.497022277307E-01 8.268436165510E+00 -4.827919839169E+00 -7.823750102937E+00 6.167118179922E+00 -7.789691822583E+00 5.326656615788E+00 3.329471753285E-01 4.344892545478E-01 1.043134608438E+00 4.951182414697E-01 -5.549098020011E-01 -1.089238386333E+00 8.840631088648E-01 -8.602676680683E-01 3.439123867856E-01 1.398527369617E-01 5.985526129018E-01 1.175452158391E+00 4.793261919743E-01 1.037574059507E-01 1.220939416626E+00 -1.319513130335E+00 -1.384008932098E+00 1.195871470808E+00 -3.766773482908E-01 -1.743113183923E+00 3.487610382128E-01 -1.886465280351E+01 2.791098917073E+01
 -1.624783328681E+00 7.328310527050E-01 5.950580196190E-01 2.111366444657E+01 -6.296813378221E+00 -1.638738698357E+01 -4.812591193266E+00 3.100024570438E+00 -5.393229242131E+00 3.925772706929E-01 5.319400538851E+00 1.450885084757E+00 4.297949628763E-01 -1.388245164141E+00 -1.280017645036E+00 -1.952180292664E-01 1.504455317305E+00 8.255996545401E-01 8.081765611774E-01 -1.273978676978E+00 1.061653768323E+00 -1.615106878627E+00 -3.872126408664E-01 -3.602478799663E+00 -3.311785977675E-02 2.910223180560E+00 -1.632146451406E+00 -8.340614146860E-01 3.032742793260E+00 -1.049428794383E+01 -1.843723037590E+01 5.532789282669E-01 3.397629326395E+01
 -1.416530032627E+01 1.432915629134E+01 6.047033560927E-01 4.080251658665E+00 2.991572050608E+00 3.759056804994E-01 1.536372187215E+00 2.041590134015E+00 -8.387717595361E-01 5.888973893832E-01 -1.278144592435E+00 -1.459382988665E+00 -1.952321995760E+00 1.381231384753E+00 -2.438875379588E+00 -1.654662254533E+00 -2.668269987087E+00 -1.197168101612E+00 -9.641964308695E-01 -1.698926237706E+00 1.443841347767E+00 -7.477735225592E-01 7.559228331275E-01 -1.115978595055E+00 4.328169427916E-01 -1.664209697477E+00 1.477028638698E+00 5.888424686206E-01 2.400296352587E-01 -3.032461948341E-01 -3.569123685811E-01 1.001490043865E+00 6.037585578702E-01 1.604743291533E+01
 1.793765498832E+01 -1.774978028581E+01 -9.557403921368E-01 5.519327979382E-01 2.010145302965E-01 5.909960537094E-01 -6.937778471024E-01 1.203943055871E+00 -4.210554406960E-02 -2.798919642122E-01 -4.243269791860E-01 2.261486205368E-01 -3.130587288035E+00 -5.804058667585E+00 -9.559258919071E+00 -2.859565126905E+00 -2.539065578336E+01 2.933546914620E+01 -3.571152451061E-01 2.022833945736E-01 1.014684441647E+00 -2.675899026109E-01 9.900201003862E-01 -5.386472419628E-01 6.804638247403E-01 -6.047491467664E-01 -1.345878671096E+00 1.126221841964E+00 -1.196446838718E+00 -2.314953224889E-01 -2.423413621760E+00 1.396221914860E-01 1.051829418209E+00 -1.585580680475E+01 5.430164480100E+01
 -3.802957837715E-01 1.995050226109E+00 2.428813283859E-01 -4.054258568407E+00 -2.656422776351E+00 -1.008885484711E+00 -2.083337831519E-01 -3.525315372115E+00 6.151846068791E-01 5.873353915159E-01 4.286017578666E+00 1.733559821021E+00 -1.324756895830E+00 -1.175543038522E+01 -1.598380942522E+01 6.034642893242E+00 3.319960334574E+01 -3.623437249378E+01 1.350195978190E+00 7.312498753824E-01 -1.111525825514E+00 -3.496798442076E-01 -2.397108715998E+00 9.594205220454E-01 -9.594973694102E-01 5.611464968891E-01 -1.483959136140E+00 1.289741088511E-02 5.204876769067E-01 -2.102751534443E-01 1.470714799718E+00 -4.605075966176E-01 -1.270514382752E+00 1.528011528273E+00 -1.931834628886E+01 5.379661903234E+01
 2.019112045859E+00 -2.733728780487E-01 4.579256301002E-01 7.795568312672E-04 1.824494769131E+00 8.589304559361E-01 -9.773716656035E+00 -1.213736963116E+01 9.954948043794E+00 3.481183666451E-01 -2.659410491076E+00 -8.418633499187E-01 -1.768576110078E+00 3.100824590849E+00 -3.091768193751E+00 1.506031449660E+00 -1.037958449822E+00 -3.979571618255E+00 -5.129342390915E+00 -7.238554781737E+00 1.015332307568E-01 -7.704078897572E-01 8.977255485684E-01 -3.042351717713E-01 -8.476028363964E+00 8.903261105938E+00 -6.915922519683E+00 5.983922845231E-01 -3.600741617281E+00 -1.844187480852E+00 -3.348478434181E+00 4.682446526381E-01 2.729431244943E+00 -1.488253676805E+00 1.458676524126E-01 1.673274891444E+00 2.819916737958E+01
 3.120920544809E-01 3.541700465912E-01 6.914467526483E-01 -1.813913452911E+00 -4.951312186979E-01 2.742223710634E-01 -1.567752603233E+01 -1.734010207456E+01 1.587797242044E+01 -2.229675813315E+00 9.570662015834E-01 6.120123972388E-01 -1.084932348868E+00 4.156740670408E-01 -1.927282447806E-01 -8.444584441843E-02 -1.320207743361E+00 -1.130801664190E+00 -4.086575723200E+00 -4.049455509855E+00 -1.414069913923E+00 1.523397629797E+00 8.110411705435E-01 7.077608829399E-01 1.172592349675E+01 -1.361278113001E+01 1.102404445685E+01 4.583615025874E-01 -8.195535115420E-01 -5.274020789744E-01 1.026511359228E+00 -7.668115935636E-01 9.195526199810E-02 -3.795933254584E-01 -1.597069454479E+00 -8.344758676645E-02 6.945129468245E+00 4.132748164011E+01
 -1.181213747158E+00 -1.720678620145E-01 -2.071598266705E-01 -4.173767056011E-01 -1.180072693952E+00 -5.201212010583E-01 1.158712291515E+01 1.700560950399E+01 -1.117888142532E+01 -1.696523072437E+00 3.127308148721E+00 7.346765097605E-01 -3.173190446241E-01 -9.812445404791E-02 1.894635347322E-01 2.182382920249E-01 -4.188998784956E-01 1.632426130587E+00 -3.544536719770E+00 -2.413156282694E+00 -5.159743669107E+00 1.991796400354E+00 -6.763667049995E-01 1.363969228313E+00 -8.161251281274E+00 1.078306431972E+01 -7.360198679640E+00 2.554931592507E-01 1.074161492190E+00 -5.793994429644E-01 1.986794954737E-01 2.714181338454E-01 -1.341713261063E+00 -4.964598164245E-01 -6.045444324325E-01 -6.137636965226E-01 2.041902365374E-01 -1.891366676263E+01 3.212866191834E+01
 -1.008300166409E+00 1.645746843068E+00 2.961402456274E-01 -3.976754911316E+00 -2.478078323354E+00 -9.687407620786E-01 -5.143679531560E+00 -5.607889681823E+00 -2.101580546142E+00 -2.065678024573E-01 2.748664173761E+00 4.147931212022E-01 1.922806744399E+00 -2.385410868353E+00 -1.175116456464E+00 -5.357297933593E+00 -1.460447140781E+01 -2.766640816380E-01 -9.339384369947E+00 -7.698549480535E+00 8.195961384084E+00 -2.102893415604E-01 -5.361684928351E-01 -2.484820133175E-01 -4.293151924008E-01 1.427219592063E+00 -1.301431017762E+00 -1.932579533791E+00 2.844260643069E-01 -3.670393845485E-01 1.350242281828E+00 -1.190991043773E+00 4.314510902343E-01 1.169793002874E+00 1.543598947430E+00 -2.485116711663E+00 1.165234990958E+00 2.875824974105E-01 -1.996108916815E+00 2.137398636676E+01
 -2.705159571446E+00 4.512500449605E+00 1.659320547745E-01 -7.602527883553E+00 -5.916294052114E+00 -2.519198650397E+00 -6.506813724220E+00 -8.160349173419E+00 -1.105540638783E+00 -6.563501143557E-01 6.957926639391E+00 3.784555416985E+00 6.169159683604E+00 -5.248643933716E+00 -1.775925642188E+00 -1.372723513413E+01 -4.675856111927E+01 -7.760329987005E+00 -6.319928958265E+00 -4.834897231663E+00 6.048843378674E+00 1.040067080946E+00 -3.326936610521E+00 2.761953698198E+00 -2.964032807424E+00 1.076896642610E+00 -3.902303597816E-01 1.219822023482E+00 -2.100196479072E-02 -1.780480057640E+00 2.949429178350E+00 -1.104546550387E-01 -9.767640246048E-01 4.439120031684E+00 -4.721093124870E-01 -2.514698217961E+00 2.945028989017E+00 1.937001778749E+00 -7.456333876566E-01 2.353222569191E+01 5.682043546596E+01
 4.468084583439E-01 7.892654364825E-01 -1.029004970264E-01 -2.068189069382E+00 -2.933721552004E-01 2.456120061370E-01 -3.305077939854E+00 -4.818732092928E+00 -3.441720466322E+00 1.284766676492E+00 -9.692171977669E-01 9.008707839736E-01 1.007703399275E+00 9.272282617862E-01 5.402723056692E-01 -5.113652231002E+00 -1.292623429139E+01 -3.703412304569E+00 1.014608431576E+01 6.102226356942E+00 -9.082865044885E+00 -1.548148175349E+00 -1.419721392728E+00 -1.921058432658E+00 -6.442522167701E-01 4.700396329851E-01 -1.823068506915E+00 1.087467467636E-01 -7.942710858540E-02 -1.830137562061E+00 6.033158697409E-01 -8.500017730961E-01 2.534242969068E+00 4.174985571180E-01 1.063072821028E+00 -2.405151613934E-03 1.068575531680E+00 -3.384514575813E+00 -5.211497749764E+00 -3.249795389160E-01 8.296146455552E+00 2.207898842434E+01
 -7.717435191530E-01 7.155068564253E-01 3.617525055595E-01 -2.685569077074E+00 -2.611651846441E+00 1.898573704831E+00 2.976173074900E-01 -4.553978149724E-01 -1.428874877700E-01 -1.344909443236E+00 -6.846060198391E-01 1.399712829207E+00 -5.026247615983E-01 -2.042222366270E+00 3.579794715077E-01 -6.229187448638E-01 -9.405765189936E-01 -1.895570221882E+00 -6.452123065684E-01 7.437087157886E-01 1.617418340769E+00 7.468470126980E-01 9.307675441492E-01 -1.466805057040E+00 -4.252877314650E+00 3.183049321966E+00 5.865814568634E+00 -1.047880568989E+00 2.322599183399E-01 -1.260880180650E+00 2.396723479477E-01 3.326708612391E+00 4.292121612517E-01 -1.183298201698E-01 2.014063509144E-01 -7.672300782613E-03 -2.234880768527E-01 8.250180695386E-01 -1.454543424248E-01 9.572375093656E-02 -3.936331058310E-01 -3.914116669265E-01 2.030867783266E+01
 -4.044216462657E-01 4.413844446570E+00 4.207193234571E-01 -8.333040186820E+00 -6.599513359876E+00 -2.700082502894E-01 2.824627776002E-01 -7.114334269265E+00 6.231150713394E-01 -6.027382243225E+00 -5.829131645945E+01 -2.731974860807E+01 2.372422196542E+00 -1.528353058427E+00 -4.787352666003E+00 4.752044878630E+00 1.391603356447E+00 3.032819702951E+00 3.375876772861E+00 -6.261263533491E-01 4.148253438377E+00 -3.124460512943E+00 -2.556642740994E+00 4.388463750136E+00 1.831999223344E+00 2.755313056889E-01 -4.137686798250E+00 -1.951670976501E+00 1.871667622495E+00 1.306375770568E+00 5.388180487135E+00 -1.588069509577E+01 -5.746719887968E+00 4.611215197880E-01 2.260191438141E+00 -3.174046323538E+00 3.164429000685E+00 -3.305115749669E-01 -2.528659832581E+00 -1.841202255102E+00 -5.206328164228E+00 9.899042094828E-01 -1.580723466315E+00 8.042016228501E+01
 9.628190210349E-02 3.118056056788E+00 6.464295498638E-01 -2.437107102855E+00 -1.043164535309E+00 -1.807763754612E+00 5.317336626512E-01 -3.035487021111E+00 6.574323717348E-02 -7.484785915753E-01 -3.214264214235E+01 -1.591032726184E+01 2.853419057856E+00 -4.538977450089E-01 -1.836370782306E+00 2.642843685042E+00 1.906352163696E+00 3.443132616190E+00 8.695149649410E-01 8.388641311058E-01 1.000042880891E+00 -7.132533437280E-01 -1.052137124005E+00 3.306730416044E+00 2.143820269153E+00 -4.939860550289E+00 -3.173742870231E+00 -3.362963374663E-01 -5.585532769288E-01 1.050552973414E+00 3.096916055570E+00 2.759225068241E-01 -6.766853851545E+00 2.956405536931E+00 -5.141043894175E-01 -1.539518826323E+00 2.150801378600E+00 -1.111208008117E+00 -1.390557212126E+00 -2.892039688245E+00 -2.075856265776E+00 -1.352770857764E+00 -5.209057146981E+00 3.228042461495E+01 3.202314932459E+01
 3.534417774731E-02 8.692891893013E-03 2.447808341498E-01 -2.233655239465E+01 -3.308437705563E+01 -2.262373962634E+01 -2.600164771522E-01 -5.998914748641E-01 -4.043339335825E-01 -1.160527833914E+00 -2.052009321141E+00 1.470824989176E+00 -2.665894148030E-01 -2.568344143954E-01 1.179437823167E+00 -2.822471041928E+00 -2.374013980145E+00 -7.033013439640E-01 -6.089152079903E-01 2.356969336820E-02 -5.346013747059E-02 -1.274749039347E-01 1.794378723747E+00 -7.607752439813E-01 5.366855082338E-01 3.115678611004E-01 -3.275498129577E-01 -4.881570428763E-01 1.718779423707E+00 -2.162297885446E+00 -7.947583945499E-01 -2.533715295772E-01 1.252006446121E+00 1.637651335800E-01 1.459870909751E+00 2.323623249666E-01 -8.751082438200E-02 4.284628927561E-01 -5.330224770499E-01 1.419502813632E+00 1.485367021006E+00 1.419399662149E+00 -2.358760597211E-01 -2.699920653876E-01 -2.067642229704E+00 6.399480311589E+01
 1.868505821045E-01 -2.550305108022E+00 -4.888040869760E-01 -2.692144972374E+01 -4.729772277006E+01 -3.058541885352E+01 5.662784815373E-01 2.397610204388E+00 7.041203725893E-01 -1.100743381054E+00 -1.515878871979E+01 2.819188363404E+00 -5.110749188285E+00 -3.128870966971E-01 1.356215616681E+00 -1.344070546882E+00 -4.027682167736E+00 -6.828723467971E+00 -1.451062642875E+00 1.785465496683E+00 4.018504966939E+00 1.905350691030E-01 2.610679583294E+00 -1.629326402580E+00 3.318752623092E+00 -1.328674035793E+00 2.353911577660E+00 2.223876729262E+00 -7.480098000598E+00 -3.579986664653E+00 -4.672203000027E+00 2.306158886795E+00 -2.069394248099E+00 -3.527985002607E-01 -6.790905599906E-01 1.877195265094E+00 1.436752992744E-01 3.396115233661E-01 4.799411310876E-01 7.577321883660E-01 2.502283501057E+00 -8.059656619576E-01 9.926529756506E-01 3.323212818901E+00 3.025462318737E+00 5.744645662857E+01 8.208119699008E+01
 5.883050068066E-01 -3.206074322844E+00 -5.463640815244E-01 -1.603309649098E+01 -3.054473892201E+01 -2.063195822172E+01 5.941470711542E-02 2.366729894872E+00 -6.665408438472E-01 -6.385022470634E-01 2.698885054372E+00 -6.908733663935E+00 -3.938842537769E+00 2.006407106986E+00 1.934917103284E+00 -2.666251504685E+00 -2.794544735270E+00 -3.152030511561E+00 -2.488278011209E-01 -2.173070443146E+00 -6.711274603460E-01 -2.017490536072E+00 1.758710256056E+00 -2.306452764956E+00 3.839093081302E+00 1.529182949337E+00 -2.018407250069E+00 4.358874858062E-01 -1.494590140334E+00 -4.200392541584E+00 -6.148432394620E+00 -5.953837309210E-01 6.428913103262E+00 -2.966689304921E+00 9.055680627603E-01 7.824519486059E-01 -1.909519866347E+00 -1.984606983247E-01 -2.340368818210E-01 4.026540697021E+00 3.520144376234E+00 3.080648949357E+00 2.248414035039E+00 2.856951956779E+00 -6.119268431882E+00 2.687294378582E+01 2.846432541025E+01 3.276970421786E+01
 -8.420625542055E-01 -4.406707545170E+00 2.219404999278E+00 6.650682514426E+00 2.492553369558E+00 -8.625481230971E-02 3.802029441959E-02 5.228046447404E+00 -1.030744962421E+00 -1.283105456220E+00 -3.808531125077E+00 -5.847751155421E+00 -1.680449839925E+00 1.976225652066E+00 2.132126425846E+00 -5.720567016232E-01 1.933906279357E+00 5.573464641760E-01 -6.739377739634E-01 2.181662161857E-02 -2.846314000667E+00 -2.211453805832E-01 -3.422711590721E-01 -1.582968495648E-01 1.274820291354E+00 -1.164520928350E+00 3.099111507612E-01 1.034906206681E+00 -6.143151847959E-01 -2.527407418835E+00 -3.213988577631E+00 -7.869557408633E-02 3.489230432943E+00 -9.034641788769E-01 -2.712045346750E+00 -2.504416475982E-02 -3.495953630425E+00 2.033468853780E-01 3.106235458269E+00 1.165534155669E+00 1.056262769835E+00 -2.134117109116E+00 1.256578415265E+00 3.488134938444E+00 2.585816848365E+00 -3.549875754359E+01 -2.553342640540E+01 -4.646763636374E+00 3.757034712718E+01
 -7.726627355762E-01 -1.504073558013E+01 1.019876847205E+01 3.436849450508E+00 2.497252583502E+00 1.335982908412E+00 8.027678055926E-01 6.526742248638E-01 -1.285574044669E+00 3.265068603268E-01 -4.737474700540E+00 -1.664437025917E+00 -1.581535155121E+00 2.650326252458E+00 3.875235045237E-01 8.781611444998E-03 -7.722044461141E-01 -4.146164630151E+00 -1.697801329467E-01 -1.565047399018E+00 2.719518212835E-01 -7.636814251735E-01 -2.355938563326E+01 1.297774277364E+01 8.549793640100E-01 -4.994069477285E-01 -7.311262726317E-01 4.826786523106E-01 -5.247496830087E-01 1.400466732857E+00 -2.479450230292E+00 6.759381377137E-01 1.347967413534E-01 -2.915990204004E+00 -3.119981285519E+00 3.433324129319E+00 -1.772922386812E+00 -1.191677476845E+00 -2.939189939204E-02 2.523816153309E+00 4.743255604509E+00 2.022063772860E+00 7.965740456875E-01 3.613890242648E+00 1.291472462116E+00 -2.536404493382E+01 -1.834605604305E+01 -4.127527636601E+00 2.545317209998E+01 5.729433620384E+01
 1.497756130481E+00 1.013372189669E+01 -6.174647503743E+00 2.162252021087E+00 -5.576925348088E-02 -1.251782123146E+00 -9.362730926836E-01 1.077320267573E+00 9.830377965846E-01 -4.524892715050E-02 9.455718929707E-01 -3.370213709754E+00 -2.228538506645E-01 -1.092760967392E+00 1.126597051306E+00 -1.469882242366E+00 3.545669626001E+00 1.511429872024E+00 2.988754361662E-01 8.985181440098E-01 -2.089706496922E+00 1.618484695160E+00 1.345195527405E+01 -8.568133877250E+00 7.403753160330E-01 1.182994749177E+00 -1.164956579572E+00 2.213246124299E-01 -1.621880655731E+00 -1.196867851121E+00 -1.142401371526E+00 -9.359153330847E-01 2.097622063102E+00 7.941791473773E-01 -1.206477207978E+00 1.142075275639E-01 3.155085376256E-01 1.480687273639E-01 -1.500558157967E-01 -6.850590328106E-01 -3.956843096919E+00 -1.315464508332E+00 -5.501316830064E-02 -1.447672825993E+00 -1.310008542167E+00 -2.084547478542E+00 4.319889593024E-01 2.227767394516E+00 1.568172771976E+00 -2.105903874807E+01 1.776454808817E+01
 -2.180114413788E+00 -3.713069333429E+00 -3.765518701126E+00 -6.178123472647E+00 -4.857826606924E+00 1.886684941740E-01 2.756837206585E-01 -2.774725320687E+00 1.475051270881E-01 -1.863033304246E+00 6.009323537291E+00 6.362479232287E+00 -3.154318014191E+01 2.300148169287E+01 5.278049804718E+00 1.904440621089E+00 -4.398992188280E-01 6.452603702918E-01 8.320282879775E-01 1.404373297410E+00 3.433081578779E+00 -1.209671275620E+00 -1.149255996315E+00 1.514545255706E+00 -6.346520430952E-01 9.031154961814E-01 -1.122056362951E+00 -1.271496558390E+00 3.524234763223E+00 1.013451200278E+00 1.430994704504E+00 -8.682519799228E-01 -2.347147332027E+00 -1.155907487731E+00 3.376409379285E+00 -9.835852527941E-01 7.722739686883E-01 1.197116757611E+00 1.508511798002E+00 -6.474848511243E-01 -3.334227694689E+00 -1.222854753161E-01 -3.363217493457E+00 -5.343591146299E+00 -4.225293289570E+00 1.691000383288E+00 6.424333032806E-01 3.163193961241E+00 1.052562590481E+00 1.423148473219E+00 -2.657370441038E+00 4.264237523164E+01
 -2.337171455593E+00 -1.683539039008E+01 -1.544037897198E+01 -1.959753522101E-01 1.443345734728E+00 4.307965519458E-01 2.309720645487E+00 -2.793862316096E+00 -1.628231285013E+00 4.990299810145E-01 -5.382104210184E+00 -4.575694605735E+00 2.424668210204E+01 -1.562156144826E+01 -8.602233624090E+00 1.595116214969E+00 -7.855909447637E-01 -2.677851229681E+00 1.962051049183E+00 -3.629166360302E+00 2.361429353151E+00 -1.395881572266E+00 -2.466888248037E-01 1.821252467002E+00 3.265111515830E-01 -4.425442119036E+00 -2.647192770745E+00 -1.105413444451E+00 -1.444377408786E+00 5.823768696174E-01 -7.927452732279E-01 3.110150919545E-01 4.579561581872E-01 -1.755125308180E+00 -1.687993603688E+00 -2.782366406615E-02 -1.924677519900E-01 -1.322112298016E+00 -2.643274616382E-01 1.075015743366E+00 3.566023726244E+00 7.007571374762E-01 -4.598237005397E+00 1.217722162455E+00 3.073393999492E+00 -1.286393590235E+00 6.868954858649E-01 2.099418407871E-01 -6.995240340016E-01 -1.431515094597E+00 8.723293221414E-01 -1.856478963917E+01 5.017819978709E+01
 -2.778130538466E+00 -1.379575843471E+01 -1.143200141274E+01 4.820844252912E-02 2.153440216635E+00 -2.112945706882E-01 1.363358017564E+00 1.662976378420E-01 -2.601826778969E+00 2.544329181267E-01 8.619081131399E-01 -1.910753790517E+00 9.226551903451E+00 -6.411034528494E+00 -4.462716047310E+00 -1.967493403176E-01 5.430509645032E-01 1.419747548438E+00 6.623583873119E-01 -1.083595823002E+00 -3.183743941061E-01 -1.202439250268E+00 1.628863023289E+00 1.250936936828E-01 7.713120690647E-01 -1.923332372281E+00 -3.099258679418E+00 -5.855511540497E-01 6.839985895231E-01 1.671735708983E+00 1.088743112677E+00 -1.255471635458E+00 1.708483188639E-02 -1.696454623512E-02 -6.796098196395E-01 -4.052438770324E-01 -2.377015351785E+00 -2.306263269307E+00 8.369126093727E-03 1.753180628335E+00 4.872776837396E-01 7.219276530252E-01 -8.823920328000E-01 -2.906379272875E+00 -2.061848316183E+00 -1.154379380318E+00 -1.264052172695E+00 1.587431325041E+00 2.163906126677E+00 -4.721680654264E-01 1.610483875819E+00 -7.810494922655E+00 2.446486915761E+01 2.023280644778E+01