#BIOSYM hessian 1
@Type: Hessian Update
@Units
 distance: 	A
 energy: 	Kcal/Mol
#header
@natom 4

#label
L1      L2      L3      M4

#element
Li Li Li Mn

#matrix
12
 1.156087815974E+03
 1.962045009193E+02 1.776859891052E+03
 1.210708864640E+02 -2.224899530982E+02 2.129954956273E+03
 8.776756077626E+02 -4.278563566772E+02 -2.088675465338E+02 1.257741051083E+03
 -4.640556659808E+02 -2.699359208135E+02 -9.847793124091E+01 6.352476781924E+01 1.665550080066E+03
 -2.831031457723E+02 -1.057181170351E+02 -3.959934518015E+01 1.043053442697E+02 -2.735057965228E+02 2.100197168101E+03
 1.297894507808E+02 1.042292550881E+02 3.721183814206E+01 6.243728576194E+01 2.460986931768E+02 1.164836478369E+02 1.946459120467E+03
 1.365593825474E+02 3.154290101632E+02 1.429617060532E+02 1.537413538207E+02 3.975228733341E+02 1.965537693933E+02 -4.693111809620E+02 1.356045468124E+03
 3.967121796548E+01 1.898216753037E+02 7.950297688324E+01 1.431740905047E+02 2.471306689420E+02 1.099052721074E+02 -3.436802181381E+02 -6.212998954493E+02 1.766150398319E+03
 7.729324620411E+01 1.274226006698E+02 5.058482192769E+01 4.299217611256E+01 1.544322049844E+02 6.231415366560E+01 1.021602637114E+02 1.790104445938E+02 1.608349096678E+02 2.018400434693E+03
 1.312917825140E+02 4.184931403192E+02 1.780061782859E+02 2.105902350376E+02 4.477090881345E+02 1.826701441645E+02 1.189832326969E+02 1.718487691000E+02 1.843475512036E+02 -4.608652502480E+02 1.202795123167E+03
 1.223610413428E+02 1.383863948298E+02 7.098753274514E+01 -3.861188824081E+01 1.248530588215E+02 7.034302569268E+01 1.899847321594E+02 2.817844200029E+02 2.852874734112E+02 -2.737338852611E+02 -5.450238736541E+02 1.814228088872E+03

