 Job started on host DESKTOP-5CQNRD0
 at Sat Aug 31 18:15:02 2019

 +-------------------------------------------------+
 |                                                 |
 |      CCC   AA    SSS  TTTTT  EEEEE  PPPP        |
 |     C     A  A  S       T    E      P   P       |
 |     C     AAAA   SS     T    EEE    PPPP        |
 |     C     A  A     S    T    E      P           |
 |      CCC  A  A  SSS     T    EEEEE  P           |
 |                                                 |
 +-------------------------------------------------+
 |                                                 |
 | Materials Studio CASTEP version 2017            |
 | Ab Initio Total Energy Program                  |
 |                                                 |
 | Authors:                                        |
 | M. Segall, M. Probert, C. Pickard, P. Hasnip,   |
 | S. Clark, K. Refson, J. R. Yates, M. Payne      |
 |                                                 |
 | Contributors:                                   |
 | P. Lindan, P. Haynes, J. White, V. Milman,      |
 | N. Govind, M. Gibson, P. Tulip, V. Cocula,      |
 | B. Montanari, D. Quigley, M. Glover,            |
 | L. Bernasconi, A. Perlov, M. Plummer,           |
 | E. McNellis, J. Meyer, J. Gale, D. Jochym       |
 | J. Aarons, B. Walker, R. Gillen, D. Jones       |
 | T. Green, I. J. Bush, C. J. Armstrong,          |
 | E. J. Higgins, E. L. Brown, M. S. McFly         |
 |                                                 |
 | Copyright (c) 2000 - 2016                       |
 |                                                 |
 | Please cite                                     |
 |                                                 |
 |     "First principles methods using CASTEP"     |
 |                                                 |
 |         Zeitschrift fuer Kristallographie       |
 |           220(5-6) pp. 567-570 (2005)           |
 |                                                 |
 | S. J. Clark, M. D. Segall, C. J. Pickard,       |
 | P. J. Hasnip, M. J. Probert, K. Refson,         |
 | M. C. Payne                                     |
 |                                                 |
 |       in all publications arising from          |
 |              your use of CASTEP                 |
 |                                                 |
 +-------------------------------------------------+
 
 
 This version was compiled for x86_64-windows-msvc2008 on May 05 2016
 Intel(R) Math Kernel Library Version 11.1.2 
 Fundamental constants values: CODATA 2010
 
License checkout of MS_castep successful
 
 
 Atomic calculation performed for Ni: 1s2 2s2 2p6 3s2 3p6 3d8 4s2
 
 Converged in 91 iterations to an ae energy of -41375.898 eV
 
 Identity difference: 8.24E-04
 
   ============================================================                
   | Pseudopotential Report - Date of generation 31-08-2019   |                
   ------------------------------------------------------------                
   | Element: Ni Ionic charge: 10.00 Level of theory: PBE     |                
   | Atomic Solver: Koelling-Harmon                           |                
   |                                                          |                
   |               Reference Electronic Structure             |                
   |         Orbital         Occupation         Energy        |                
   |            3d              8.000           -0.326        |                
   |            4s              2.000           -0.207        |                
   |                                                          |                
   |                 Pseudopotential Definition               |                
   |        Beta     l      e      Rc     scheme   norm       |                
   |          1      0   -0.207   1.999     qc      0         |                
   |          2      0    0.250   1.999     qc      0         |                
   |          3      1    0.000   1.999     qc      0         |                
   |          4      1    0.250   1.999     qc      0         |                
   |          5      2   -0.326   1.999     qc      0         |                
   |          6      2    0.250   1.999     qc      0         |                
   |         loc     3    0.000   2.191     pn      0         |                
   |                                                          |                
   | Augmentation charge Rinner = 1.001                       |                
   | Partial core correction Rc = 1.001                       |                
   ------------------------------------------------------------                
   | "3|2.2|2|1|10|12.1|14.7|40UU:41UU:32UU(qc=6)[]"          |                
   ------------------------------------------------------------                
   |      Author: Chris J. Pickard, Cambridge University      |                
   ============================================================                
 
 Doing a self consistent calculation for the test configuration
 
 Atomic calculation performed for Ni: 1s2 2s2 2p6 3s2 3p6 3d8 4s2
 
 Converged in 91 iterations to an ae energy of -41375.898 eV
 
 ---------------------------------------
 AE eigenvalue nl 10 =     -301.79263876
 AE eigenvalue nl 20 =      -36.08162216
 AE eigenvalue nl 21 =      -31.04152791
 AE eigenvalue nl 30 =       -4.08135009
 AE eigenvalue nl 31 =       -2.62346104
 AE eigenvalue nl 32 =       -0.32611860
 AE eigenvalue nl 40 =       -0.20737752
 ---------------------------------------
 PS eigenvalue nl 32 =       -0.32597884
 PS eigenvalue nl 40 =       -0.20738932
 ---------------------------------------
 Maximum eigenvalue error:   1.40E-04
 
 Derived cutoff energies: C=   8 M=  12 F=  12 E=  16
 
 
 ***************************************
 
 Atomic calculation performed for Cu: 1s2 2s2 2p6 3s2 3p6 3d10 4s1
 
 Converged in 144 iterations to an ae energy of -45030.710 eV
 
 Identity difference: 5.23E-04
 
   ============================================================                
   | Pseudopotential Report - Date of generation 31-08-2019   |                
   ------------------------------------------------------------                
   | Element: Cu Ionic charge: 11.00 Level of theory: PBE     |                
   | Atomic Solver: Koelling-Harmon                           |                
   |                                                          |                
   |               Reference Electronic Structure             |                
   |         Orbital         Occupation         Energy        |                
   |            3d             10.000           -0.185        |                
   |            4s              1.000           -0.169        |                
   |                                                          |                
   |                 Pseudopotential Definition               |                
   |        Beta     l      e      Rc     scheme   norm       |                
   |          1      0   -0.169   1.996     qc      0         |                
   |          2      0    0.250   1.996     qc      0         |                
   |          3      1    0.000   1.996     qc      0         |                
   |          4      1    0.250   1.996     qc      0         |                
   |          5      2   -0.185   1.996     qc      0         |                
   |          6      2    0.250   1.996     qc      0         |                
   |         loc     3    0.000   2.206     pn      0         |                
   |                                                          |                
   | Augmentation charge Rinner = 0.999                       |                
   | Partial core correction Rc = 0.999                       |                
   ------------------------------------------------------------                
   | "3|2.2|2|1|10|13|15|40UU:41UU:32UU(qc=6)[]"              |                
   ------------------------------------------------------------                
   |      Author: Chris J. Pickard, Cambridge University      |                
   ============================================================                
 
 Doing a self consistent calculation for the test configuration
 
 Atomic calculation performed for Cu: 1s2 2s2 2p6 3s2 3p6 3d10 4s1
 
 Converged in 144 iterations to an ae energy of -45030.710 eV
 
 ---------------------------------------
 AE eigenvalue nl 10 =     -325.27407816
 AE eigenvalue nl 20 =      -39.04519067
 AE eigenvalue nl 21 =      -33.69829316
 AE eigenvalue nl 30 =       -4.21529652
 AE eigenvalue nl 31 =       -2.65124927
 AE eigenvalue nl 32 =       -0.18517456
 AE eigenvalue nl 40 =       -0.16941650
 ---------------------------------------
 PS eigenvalue nl 32 =       -0.18509449
 PS eigenvalue nl 40 =       -0.16945237
 ---------------------------------------
 Maximum eigenvalue error:   8.01E-05
 
 Derived cutoff energies: C=  10 M=  12 F=  12 E=  16
 
 
 ***************************************
 
 Pseudo atomic calculation performed for Ni 3d8 4s2
 
 Converged in 40 iterations to a total energy of -1355.1866 eV
 
 
 Pseudo atomic calculation performed for Cu 3d10 4s1
 
 Converged in 53 iterations to a total energy of -1676.7763 eV
 
 Calculation not parallelised.

 ************************************ Title ************************************
 CASTEP calculation from Materials Studio

 ***************************** General Parameters ******************************
  
 output verbosity                               : normal  (1)
 write checkpoint data to                       : NiCu.check
 type of calculation                            : geometry optimization
 stress calculation                             : on
 density difference calculation                 : off
 electron localisation func (ELF) calculation   : off
 Hirshfeld analysis                             : off
 unlimited duration calculation
 timing information                             : on
 memory usage estimate                          : on
 write final potential to formatted file        : off
 write final density to formatted file          : off
 write BibTeX reference list                    : on
 write OTFG pseudopotential files               : on
 checkpoint writing                             : both castep_bin and check files
  
 output         length unit                     : A
 output           mass unit                     : amu
 output           time unit                     : ps
 output         charge unit                     : e
 output           spin unit                     : hbar/2
 output         energy unit                     : eV
 output          force unit                     : eV/A
 output       velocity unit                     : A/ps
 output       pressure unit                     : GPa
 output     inv_length unit                     : 1/A
 output      frequency unit                     : cm-1
 output force constant unit                     : eV/A**2
 output         volume unit                     : A**3
 output   IR intensity unit                     : (D/A)**2/amu
 output         dipole unit                     : D
 output         efield unit                     : eV/A/e
 output        entropy unit                     : J/mol/K
  
 wavefunctions paging                           : none
 random number generator seed                   : randomised (181513383)
 data distribution                              : optimal for this architecture
 optimization strategy                          : maximize speed(+++)

 *********************** Exchange-Correlation Parameters ***********************
  
 using functional                               : Perdew Burke Ernzerhof
 relativistic treatment                         : Koelling-Harmon
 DFT+D: Semi-empirical dispersion correction    : off

 ************************* Pseudopotential Parameters **************************
  
 pseudopotential representation                 : reciprocal space
 <beta|phi> representation                      : reciprocal space
 spin-orbit coupling                            : off

 **************************** Basis Set Parameters *****************************
  
 plane wave basis set cut-off                   :   408.2000   eV
 size of standard grid                          :     1.7500
 size of   fine   grid                          :     2.1000
 size of   fine   gmax                          :    21.7367   1/A
 largest prime factor in FFT                    :          5
 finite basis set correction                    : automatic
 number of sample energies                      :          3
           sample  spacing                      :     5.0000   eV

 **************************** Electronic Parameters ****************************
  
 number of  electrons                           :  10.40    
 net charge of system                           :  0.000    
 net spin   of system                           :  1.000    
 number of  up  spins                           :  5.700    
 number of down spins                           :  4.700    
 treating system as spin-polarized
 number of bands                                :         10

 ********************* Electronic Minimization Parameters **********************
  
 Method: Treating system as metallic with density mixing treatment of electrons,
         and number of  SD  steps               :          1
         and number of  CG  steps               :          4
  
 total energy / atom convergence tol.           : 0.1000E-05   eV
 eigen-energy convergence tolerance             : 0.1000E-06   eV
 max force / atom convergence tol.              : ignored
 convergence tolerance window                   :          3   cycles
 max. number of SCF cycles                      :        100
 number of fixed-spin iterations                :          6
 smearing scheme                                : Gaussian
 smearing width                                 : 0.1000       eV
 Fermi energy convergence tolerance             : 0.2721E-13   eV
 periodic dipole correction                     : NONE

 ************************** Density Mixing Parameters **************************
  
 density-mixing scheme                          : Pulay
 max. length of mixing history                  :         20
 charge density mixing amplitude                : 0.5000    
   spin density mixing amplitude                :  2.000    
 cut-off energy for mixing                      :  408.2       eV
 charge density mixing g-vector                 :  1.500       1/A
   spin density mixing g-vector                 :  1.500       1/A

 ********************** Geometry Optimization Parameters ***********************
  
 optimization method                            : BFGS
 variable cell method                           : fixed basis quality
 max. number of steps                           :        100
 estimated bulk modulus                         :  500.0       GPa
 estimated <frequency>                          :  1668.       cm-1
 geom line minimiser                            : on
 with line minimiser tolerance                  :     0.4000
  with spin fully able to relax for all steps
 total energy convergence tolerance             : 0.1000E-04   eV/atom
        max ionic |force| tolerance             : 0.3000E-01   eV/A
 max ionic |displacement| tolerance             : 0.1000E-02   A
   max |stress component| tolerance             : 0.5000E-01   GPa
 convergence tolerance window                   :          2   steps
 backup results every                           :          5   steps

 *******************************************************************************
  
 
                           -------------------------------
                                      Unit Cell
                           -------------------------------
        Real Lattice(A)                      Reciprocal Lattice(1/A)
   0.0000000   1.7620000   1.7620000       -1.7829697   1.7829697   1.7829697
   1.7620000   0.0000000   1.7620000        1.7829697  -1.7829697   1.7829697
   1.7620000   1.7620000   0.0000000        1.7829697   1.7829697  -1.7829697
 
                       Lattice parameters(A)       Cell Angles
                    a =    2.491844          alpha =   60.000000
                    b =    2.491844          beta  =   60.000000
                    c =    2.491844          gamma =   60.000000
 
                       Current cell volume =   10.940765       A**3
 
                           -------------------------------
                                     Cell Contents
                           -------------------------------
                         Total number of ions in cell =    2
                      Total number of species in cell =    2
                        Max number of any one species =    1
 
            xxxxxxxxxxxxxxxxxxxxxxxxxxxxxxxxxxxxxxxxxxxxxxxxxxxxxxxxxxxx
            x  Element    Atom        Fractional coordinates of atoms  x
            x            Number           u          v          w      x
            x----------------------------------------------------------x
            x  Ni           1         0.000000   0.000000   0.000000   x 
            x  Cu           1         0.000000   0.000000   0.000000   x 
            xxxxxxxxxxxxxxxxxxxxxxxxxxxxxxxxxxxxxxxxxxxxxxxxxxxxxxxxxxxx
 
  
        xxxxxxxxxxxxxxxxxxxxxxxxxxxxxxxxxxxxxxxxxxxxxxxxxxxxxxxxxxxxxxxxxxxx
        x  Mixture   Fractional coordinates of atoms  Components  Weights  x
        x   atoms       u          v          w                            x
        x------------------------------------------------------------------x
        x    1        0.000000   0.000000   0.000000   Ni        0.600000  x
        x                                              Cu        0.400000  x
        xxxxxxxxxxxxxxxxxxxxxxxxxxxxxxxxxxxxxxxxxxxxxxxxxxxxxxxxxxxxxxxxxxxx
 
 
 
                         No user defined ionic velocities
 
                           -------------------------------
                                   Details of Species
                           -------------------------------
 
                               Mass of species in AMU
                                    Ni   58.7099991
                                    Cu   63.5460014
 
                          Electric Quadrupole Moment (Barn)
                                    Ni    0.1620000 Isotope 61
                                    Cu   -0.2200000 Isotope 63
 
                          Files used for pseudopotentials:
                                    Ni 3|2.2|2|1|10|12.1|14.7|40UU:41UU:32UU(qc=6)[]
                                    Cu 3|2.2|2|1|10|13|15|40UU:41UU:32UU(qc=6)[]
 
                           -------------------------------
                              k-Points For BZ Sampling
                           -------------------------------
                       MP grid size for SCF calculation is 12 12 12
                            with an offset of   0.000  0.000  0.000
                       Number of kpoints used =           182
 
                           -------------------------------
                               Symmetry and Constraints
                           -------------------------------
 
                      Maximum deviation from symmetry =  0.00000         ANG
 
                      Number of symmetry operations   =          48
         There are no ionic constraints specified or generated for this cell
                      Point group of crystal =    32: Oh, m-3m, 4/m -3 2/m
                      Space group of crystal =   225: Fm-3m, -F 4 2 3
 
             Set iprint > 1 for details on symmetry rotations/translations
 
                         Centre of mass is NOT constrained
 
                         Number of cell constraints= 5
                         Cell constraints are:  1 1 1 0 0 0
 
                         External pressure/stress (GPa)
                          0.00000   0.00000   0.00000
                                    0.00000   0.00000
                                              0.00000
  
+---------------- MEMORY AND SCRATCH DISK ESTIMATES PER PROCESS --------------+
|                                                     Memory          Disk    |
| Baseline code, static data and system overhead        0.0 MB         0.0 MB |
| BLAS internal memory storage                          0.0 MB         0.0 MB |
| Model and support data                               66.6 MB         0.0 MB |
| Electronic energy minimisation requirements          29.7 MB         0.0 MB |
| Force calculation requirements                        1.4 MB         0.0 MB |
| Stress calculation requirements                       1.5 MB         0.0 MB |
|                                               ----------------------------- |
| Approx. total storage required per process           96.3 MB         0.0 MB |
|                                                                             |
| Requirements will fluctuate during execution and may exceed these estimates |
+-----------------------------------------------------------------------------+
Calculating finite basis set correction with  3 cut-off energies.
Calculating total energy with cut-off of  398.200eV.
------------------------------------------------------------------------ <-- SCF
SCF loop      Energy           Fermi           Energy gain       Timer   <-- SCF
                               energy          per atom          (sec)   <-- SCF
------------------------------------------------------------------------ <-- SCF
Initial  -1.31110001E+003  0.00000000E+000                        20.33  <-- SCF
      1  -1.43102804E+003  1.76959131E+001   1.19928037E+002      25.39  <-- SCF
      2  -1.47762278E+003  8.22501832E+000   4.65947345E+001      30.47  <-- SCF
      3  -1.48431722E+003  6.82006260E+000   6.69443812E+000      33.94  <-- SCF
      4  -1.48441151E+003  6.80040066E+000   9.42919504E-002      37.30  <-- SCF
      5  -1.48431345E+003  5.65806270E+000  -9.80589986E-002      40.61  <-- SCF
      6  -1.48466135E+003  4.83363242E+000   3.47898457E-001      43.88  <-- SCF
      7  -1.48466633E+003  5.15841527E+000   4.98556931E-003      47.28  <-- SCF
      8  -1.48475080E+003  4.85607605E+000   8.44634175E-002      50.62  <-- SCF
      9  -1.48475051E+003  4.91833339E+000  -2.83220810E-004      54.11  <-- SCF
     10  -1.48475051E+003  4.90103827E+000   2.29639109E-006      57.58  <-- SCF
     11  -1.48475139E+003  4.90400252E+000   8.71923676E-004      61.02  <-- SCF
     12  -1.48475139E+003  4.90593861E+000  -2.37434496E-007      64.31  <-- SCF
     13  -1.48475139E+003  4.90589317E+000   4.59229881E-006      66.80  <-- SCF
     14  -1.48475139E+003  4.90576569E+000   1.96244881E-007      69.00  <-- SCF
     15  -1.48475139E+003  4.90561863E+000   9.97500483E-008      71.14  <-- SCF
------------------------------------------------------------------------ <-- SCF
 
Integrated Spin Density     =    0.111077     hbar/2                        
Integrated |Spin Density|   =    0.130629     hbar/2                        
 
Final energy, E             =  -1484.743028963     eV
Final free energy (E-TS)    =  -1484.751391160     eV
(energies not corrected for finite basis set)
 
NB est. 0K energy (E-0.5TS)      =  -1484.747210062     eV
 
Calculating total energy with cut-off of  403.200eV.
------------------------------------------------------------------------ <-- SCF
SCF loop      Energy           Fermi           Energy gain       Timer   <-- SCF
                               energy          per atom          (sec)   <-- SCF
------------------------------------------------------------------------ <-- SCF
Initial  -1.48474308E+003  0.00000000E+000                        71.56  <-- SCF
      1  -1.48475725E+003  4.90512485E+000   1.41659826E-002      74.86  <-- SCF
      2  -1.48475725E+003  4.90512483E+000   3.30152846E-007      77.05  <-- SCF
      3  -1.48475725E+003  4.90890787E+000   3.28372724E-006      79.27  <-- SCF
      4  -1.48475726E+003  4.89913806E+000   1.05931542E-005      82.38  <-- SCF
      5  -1.48475725E+003  4.90811131E+000  -1.10626966E-005      85.42  <-- SCF
      6  -1.48475725E+003  4.90592869E+000  -5.68653466E-008      87.38  <-- SCF
      7  -1.48475725E+003  4.90658006E+000  -9.01267058E-008      89.31  <-- SCF
------------------------------------------------------------------------ <-- SCF
 
Integrated Spin Density     =    0.111170     hbar/2                        
Integrated |Spin Density|   =    0.130764     hbar/2                        
 
Final energy, E             =  -1484.748886737     eV
Final free energy (E-TS)    =  -1484.757250331     eV
(energies not corrected for finite basis set)
 
NB est. 0K energy (E-0.5TS)      =  -1484.753068534     eV
 
Calculating total energy with cut-off of  408.200eV.
------------------------------------------------------------------------ <-- SCF
SCF loop      Energy           Fermi           Energy gain       Timer   <-- SCF
                               energy          per atom          (sec)   <-- SCF
------------------------------------------------------------------------ <-- SCF
Initial  -1.48474894E+003  0.00000000E+000                        89.78  <-- SCF
      1  -1.48476240E+003  4.90594329E+000   1.34654349E-002      92.89  <-- SCF
      2  -1.48476240E+003  4.90594328E+000   2.48324852E-007      94.92  <-- SCF
      3  -1.48476241E+003  4.90981653E+000   3.03186818E-006      97.08  <-- SCF
      4  -1.48476242E+003  4.89997233E+000   1.07844379E-005     100.19  <-- SCF
      5  -1.48476241E+003  4.90904145E+000  -1.13434965E-005     103.20  <-- SCF
      6  -1.48476241E+003  4.90684335E+000  -5.35107497E-008     105.17  <-- SCF
      7  -1.48476241E+003  4.90749950E+000  -8.38142633E-008     107.19  <-- SCF
------------------------------------------------------------------------ <-- SCF
 
Integrated Spin Density     =    0.111309     hbar/2                        
Integrated |Spin Density|   =    0.130944     hbar/2                        
 
Final energy, E             =  -1484.754041339     eV
Final free energy (E-TS)    =  -1484.762406111     eV
(energies not corrected for finite basis set)
 
NB est. 0K energy (E-0.5TS)      =  -1484.758223725     eV
 
 For future reference: finite basis dEtot/dlog(Ecut) =      -0.434376eV
 Total energy corrected for finite basis set =   -1484.762267 eV
 
+---------------- MEMORY AND SCRATCH DISK ESTIMATES PER PROCESS --------------+
|                                                     Memory          Disk    |
| Model and support data                               77.3 MB         0.0 MB |
| Electronic energy minimisation requirements          29.7 MB         0.0 MB |
| Geometry minimisation requirements                   44.0 MB         0.0 MB |
|                                               ----------------------------- |
| Approx. total storage required per process          151.0 MB         0.0 MB |
|                                                                             |
| Requirements will fluctuate during execution and may exceed these estimates |
+-----------------------------------------------------------------------------+
 
 
 ***************** Stress Tensor *****************
 *                                               *
 *          Cartesian components (GPa)           *
 * --------------------------------------------- *
 *             x             y             z     *
 *                                               *
 *  x     -4.375379      0.000000      0.000000  *
 *  y      0.000000     -4.375379      0.000000  *
 *  z      0.000000      0.000000     -4.375379  *
 *                                               *
 *  Pressure:    4.3754                          *
 *                                               *
 *************************************************
 BFGS: finished iteration     0 with enthalpy= -1.48476227E+003 eV
  
 +-----------+-----------------+-----------------+------------+-----+ <-- BFGS
 | Parameter |      value      |    tolerance    |    units   | OK? | <-- BFGS
 +-----------+-----------------+-----------------+------------+-----+ <-- BFGS
 |  dE/ion   |   0.000000E+000 |   1.000000E-005 |         eV | No  | <-- BFGS
 |   Smax    |   4.375379E+000 |   5.000000E-002 |        GPa | No  | <-- BFGS
 +-----------+-----------------+-----------------+------------+-----+ <-- BFGS
  

================================================================================
 Starting BFGS iteration          1 ...
================================================================================
  
 +------------+-------------+-------------+-----------------+ <-- min BFGS
 |    Step    |   lambda    |   F.delta'  |    enthalpy     | <-- min BFGS
 +------------+-------------+-------------+-----------------+ <-- min BFGS
 |  previous  |    0.000000 |    0.019018 |    -1484.762267 | <-- min BFGS
 +------------+-------------+-------------+-----------------+ <-- min BFGS
  

--------------------------------------------------------------------------------
 BFGS: starting iteration         1 with trial guess (lambda=  1.000000)
--------------------------------------------------------------------------------
 
+---------------- MEMORY AND SCRATCH DISK ESTIMATES PER PROCESS --------------+
|                                                     Memory          Disk    |
| Model and support data                               77.8 MB         0.0 MB |
| Electronic energy minimisation requirements          30.4 MB         0.0 MB |
| Geometry minimisation requirements                   45.0 MB         0.0 MB |
|                                               ----------------------------- |
| Approx. total storage required per process          153.2 MB         0.0 MB |
|                                                                             |
| Requirements will fluctuate during execution and may exceed these estimates |
+-----------------------------------------------------------------------------+
 
 
                           -------------------------------
                                      Unit Cell
                           -------------------------------
        Real Lattice(A)              Reciprocal Lattice(1/A)
   0.0000000   1.7671396   1.7671396       -1.7777841   1.7777841   1.7777841
   1.7671396   0.0000000   1.7671396        1.7777841  -1.7777841   1.7777841
   1.7671396   1.7671396  -0.0000000        1.7777841   1.7777841  -1.7777841
 
                       Lattice parameters(A)       Cell Angles
                    a =    2.499113          alpha =   60.000000
                    b =    2.499113          beta  =   60.000000
                    c =    2.499113          gamma =   60.000000
 
                Current cell volume =   11.036785 A**3
 
------------------------------------------------------------------------ <-- SCF
SCF loop      Energy           Fermi           Energy gain       Timer   <-- SCF
                               energy          per atom          (sec)   <-- SCF
------------------------------------------------------------------------ <-- SCF
Initial  -1.48473676E+003  0.00000000E+000                       108.62  <-- SCF
      1  -1.48481566E+003  4.33124796E+000   7.88958310E-002     111.81  <-- SCF
      2  -1.48481568E+003  4.33124776E+000   1.92591831E-005     115.14  <-- SCF
      3  -1.48481331E+003  5.30882639E+000  -2.36401902E-003     118.28  <-- SCF
      4  -1.48476276E+003  4.81888386E+000  -5.05567392E-002     121.42  <-- SCF
      5  -1.48476400E+003  4.82168687E+000   1.24078192E-003     124.55  <-- SCF
      6  -1.48476399E+003  4.82136937E+000  -6.83398059E-006     127.58  <-- SCF
      7  -1.48476399E+003  4.82175341E+000   4.44504303E-006     129.97  <-- SCF
      8  -1.48476400E+003  4.82186989E+000   1.37406703E-006     132.03  <-- SCF
      9  -1.48476400E+003  4.82173576E+000   3.14385467E-007     134.05  <-- SCF
     10  -1.48476400E+003  4.82170698E+000  -1.23182342E-008     136.05  <-- SCF
------------------------------------------------------------------------ <-- SCF
 
Integrated Spin Density     =    0.112152     hbar/2                        
Integrated |Spin Density|   =    0.132098     hbar/2                        
 
Final energy, E             =  -1484.755577458     eV
Final free energy (E-TS)    =  -1484.763995338     eV
(energies not corrected for finite basis set)
 
NB est. 0K energy (E-0.5TS)      =  -1484.759786398     eV
 
 
 ***************** Stress Tensor *****************
 *                                               *
 *          Cartesian components (GPa)           *
 * --------------------------------------------- *
 *             x             y             z     *
 *                                               *
 *  x     -2.684426      0.000000     -0.000000  *
 *  y      0.000000     -2.684426      0.000000  *
 *  z     -0.000000      0.000000     -2.684426  *
 *                                               *
 *  Pressure:    2.6844                          *
 *                                               *
 *************************************************
  
 +------------+-------------+-------------+-----------------+ <-- min BFGS
 |    Step    |   lambda    |   F.delta'  |    enthalpy     | <-- min BFGS
 +------------+-------------+-------------+-----------------+ <-- min BFGS
 |  previous  |    0.000000 |    0.019018 |    -1484.762267 | <-- min BFGS
 | trial step |    1.000000 |    0.011736 |    -1484.763969 | <-- min BFGS
 +------------+-------------+-------------+-----------------+ <-- min BFGS
  

--------------------------------------------------------------------------------
 BFGS: improving iteration         1 with line minimization (lambda=  2.611745)
--------------------------------------------------------------------------------
 
                           -------------------------------
                                      Unit Cell
                           -------------------------------
        Real Lattice(A)              Reciprocal Lattice(1/A)
   0.0000000   1.7754234   1.7754234       -1.7694893   1.7694893   1.7694893
   1.7754234   0.0000000   1.7754234        1.7694893  -1.7694893   1.7694893
   1.7754234   1.7754234  -0.0000000        1.7694893   1.7694893  -1.7694893
 
                       Lattice parameters(A)       Cell Angles
                    a =    2.510828          alpha =   60.000000
                    b =    2.510828          beta  =   60.000000
                    c =    2.510828          gamma =   60.000000
 
                Current cell volume =   11.192724 A**3
 
------------------------------------------------------------------------ <-- SCF
SCF loop      Energy           Fermi           Energy gain       Timer   <-- SCF
                               energy          per atom          (sec)   <-- SCF
------------------------------------------------------------------------ <-- SCF
Initial  -1.48470907E+003  0.00000000E+000                       137.42  <-- SCF
      1  -1.48490090E+003  3.89763750E+000   1.91831775E-001     140.55  <-- SCF
      2  -1.48490095E+003  3.89763699E+000   5.10545832E-005     143.91  <-- SCF
      3  -1.48490010E+003  5.49025729E+000  -8.56764001E-004     147.09  <-- SCF
      4  -1.48476086E+003  4.67876343E+000  -1.39234332E-001     150.30  <-- SCF
      5  -1.48476459E+003  4.68427955E+000   3.73060388E-003     153.33  <-- SCF
      6  -1.48476457E+003  4.68390798E+000  -2.23363840E-005     156.53  <-- SCF
      7  -1.48476461E+003  4.68574261E+000   3.61562800E-005     159.58  <-- SCF
      8  -1.48476461E+003  4.68593440E+000   3.11358654E-006     161.83  <-- SCF
      9  -1.48476461E+003  4.68572977E+000   7.29523301E-007     163.95  <-- SCF
     10  -1.48476461E+003  4.68574038E+000  -1.73496267E-007     165.89  <-- SCF
------------------------------------------------------------------------ <-- SCF
 
Integrated Spin Density     =    0.113413     hbar/2                        
Integrated |Spin Density|   =    0.133894     hbar/2                        
 
Final energy, E             =  -1484.756104359     eV
Final free energy (E-TS)    =  -1484.764610309     eV
(energies not corrected for finite basis set)
 
NB est. 0K energy (E-0.5TS)      =  -1484.760357334     eV
 
 
 ***************** Stress Tensor *****************
 *                                               *
 *          Cartesian components (GPa)           *
 * --------------------------------------------- *
 *             x             y             z     *
 *                                               *
 *  x     -0.107100      0.000000      0.000000  *
 *  y      0.000000     -0.107100      0.000000  *
 *  z      0.000000      0.000000     -0.107100  *
 *                                               *
 *  Pressure:    0.1071                          *
 *                                               *
 *************************************************
  
 +------------+-------------+-------------+-----------------+ <-- min BFGS
 |    Step    |   lambda    |   F.delta'  |    enthalpy     | <-- min BFGS
 +------------+-------------+-------------+-----------------+ <-- min BFGS
 |  previous  |    0.000000 |    0.019018 |    -1484.762267 | <-- min BFGS
 | trial step |    1.000000 |    0.011736 |    -1484.763969 | <-- min BFGS
 |  line step |    2.611745 |    0.000473 |    -1484.764629 | <-- min BFGS
 +------------+-------------+-------------+-----------------+ <-- min BFGS
  
 BFGS: finished iteration     1 with enthalpy= -1.48476463E+003 eV
  
 +-----------+-----------------+-----------------+------------+-----+ <-- BFGS
 | Parameter |      value      |    tolerance    |    units   | OK? | <-- BFGS
 +-----------+-----------------+-----------------+------------+-----+ <-- BFGS
 |  dE/ion   |   1.181196E-003 |   1.000000E-005 |         eV | No  | <-- BFGS
 |   Smax    |   1.070999E-001 |   5.000000E-002 |        GPa | No  | <-- BFGS
 +-----------+-----------------+-----------------+------------+-----+ <-- BFGS
  

================================================================================
 Starting BFGS iteration          2 ...
================================================================================
  
 +------------+-------------+-------------+-----------------+ <-- min BFGS
 |    Step    |   lambda    |   F.delta'  |    enthalpy     | <-- min BFGS
 +------------+-------------+-------------+-----------------+ <-- min BFGS
 |  previous  |    0.000000 |    0.000473 |    -1484.764629 | <-- min BFGS
 +------------+-------------+-------------+-----------------+ <-- min BFGS
  

--------------------------------------------------------------------------------
 BFGS: starting iteration         2 with trial guess (lambda=  1.000000)
--------------------------------------------------------------------------------
 
                           -------------------------------
                                      Unit Cell
                           -------------------------------
        Real Lattice(A)              Reciprocal Lattice(1/A)
   0.0000000   1.7757655   1.7757655       -1.7691484   1.7691484   1.7691484
   1.7757655   0.0000000   1.7757655        1.7691484  -1.7691484   1.7691484
   1.7757655   1.7757655  -0.0000000        1.7691484   1.7691484  -1.7691484
 
                       Lattice parameters(A)       Cell Angles
                    a =    2.511312          alpha =   60.000000
                    b =    2.511312          beta  =   60.000000
                    c =    2.511312          gamma =   60.000000
 
                Current cell volume =   11.199195 A**3
 
------------------------------------------------------------------------ <-- SCF
SCF loop      Energy           Fermi           Energy gain       Timer   <-- SCF
                               energy          per atom          (sec)   <-- SCF
------------------------------------------------------------------------ <-- SCF
Initial  -1.48475593E+003  0.00000000E+000                       167.28  <-- SCF
      1  -1.48476484E+003  4.64733747E+000   8.90539098E-003     170.42  <-- SCF
      2  -1.48476484E+003  4.64733747E+000   8.33214179E-008     172.45  <-- SCF
      3  -1.48476483E+003  4.71256140E+000  -8.36323339E-006     175.52  <-- SCF
      4  -1.48476460E+003  4.67998920E+000  -2.25323784E-004     178.58  <-- SCF
      5  -1.48476461E+003  4.68021420E+000   4.44415112E-006     180.53  <-- SCF
      6  -1.48476461E+003  4.68019798E+000  -1.24873948E-007     182.52  <-- SCF
      7  -1.48476461E+003  4.68018825E+000  -1.31111565E-008     184.47  <-- SCF
------------------------------------------------------------------------ <-- SCF
 
Integrated Spin Density     =    0.113472     hbar/2                        
Integrated |Spin Density|   =    0.134045     hbar/2                        
 
Final energy, E             =  -1484.756096474     eV
Final free energy (E-TS)    =  -1484.764606101     eV
(energies not corrected for finite basis set)
 
NB est. 0K energy (E-0.5TS)      =  -1484.760351288     eV
 
 
 ***************** Stress Tensor *****************
 *                                               *
 *          Cartesian components (GPa)           *
 * --------------------------------------------- *
 *             x             y             z     *
 *                                               *
 *  x     -0.012211      0.000000      0.000000  *
 *  y      0.000000     -0.012211      0.000000  *
 *  z      0.000000      0.000000     -0.012211  *
 *                                               *
 *  Pressure:    0.0122                          *
 *                                               *
 *************************************************
  
 +------------+-------------+-------------+-----------------+ <-- min BFGS
 |    Step    |   lambda    |   F.delta'  |    enthalpy     | <-- min BFGS
 +------------+-------------+-------------+-----------------+ <-- min BFGS
 |  previous  |    0.000000 |    0.000473 |    -1484.764629 | <-- min BFGS
 | trial step |    1.000000 |    0.000054 |    -1484.764591 | <-- min BFGS
 +------------+-------------+-------------+-----------------+ <-- min BFGS
  
 BFGS: finished iteration     2 with enthalpy= -1.48476459E+003 eV
  
 +-----------+-----------------+-----------------+------------+-----+ <-- BFGS
 | Parameter |      value      |    tolerance    |    units   | OK? | <-- BFGS
 +-----------+-----------------+-----------------+------------+-----+ <-- BFGS
 |  dE/ion   |   1.918021E-005 |   1.000000E-005 |         eV | No  | <-- BFGS
 |   Smax    |   1.221138E-002 |   5.000000E-002 |        GPa | Yes | <-- BFGS
 +-----------+-----------------+-----------------+------------+-----+ <-- BFGS
  

================================================================================
 Starting BFGS iteration          3 ...
================================================================================
  
 +------------+-------------+-------------+-----------------+ <-- min BFGS
 |    Step    |   lambda    |   F.delta'  |    enthalpy     | <-- min BFGS
 +------------+-------------+-------------+-----------------+ <-- min BFGS
 |  previous  |    0.000000 |    0.000054 |    -1484.764591 | <-- min BFGS
 +------------+-------------+-------------+-----------------+ <-- min BFGS
  

--------------------------------------------------------------------------------
 BFGS: starting iteration         3 with trial guess (lambda=  1.000000)
--------------------------------------------------------------------------------
 
                           -------------------------------
                                      Unit Cell
                           -------------------------------
        Real Lattice(A)              Reciprocal Lattice(1/A)
   0.0000000   1.7758095   1.7758095       -1.7691045   1.7691045   1.7691045
   1.7758095   0.0000000   1.7758095        1.7691045  -1.7691045   1.7691045
   1.7758095   1.7758095  -0.0000000        1.7691045   1.7691045  -1.7691045
 
                       Lattice parameters(A)       Cell Angles
                    a =    2.511374          alpha =   60.000000
                    b =    2.511374          beta  =   60.000000
                    c =    2.511374          gamma =   60.000000
 
                Current cell volume =   11.200028 A**3
 
------------------------------------------------------------------------ <-- SCF
SCF loop      Energy           Fermi           Energy gain       Timer   <-- SCF
                               energy          per atom          (sec)   <-- SCF
------------------------------------------------------------------------ <-- SCF
Initial  -1.48475614E+003  0.00000000E+000                       185.84  <-- SCF
      1  -1.48476459E+003  4.67521489E+000   8.44942091E-003     188.36  <-- SCF
      2  -1.48476459E+003  4.67521489E+000   3.75366817E-009     190.28  <-- SCF
      3  -1.48476459E+003  4.68361884E+000  -9.06876098E-008     193.05  <-- SCF
      4  -1.48476458E+003  4.67942005E+000  -3.64053956E-006     195.11  <-- SCF
      5  -1.48476458E+003  4.67943875E+000  -5.56863073E-008     197.11  <-- SCF
      6  -1.48476458E+003  4.67943461E+000  -1.09982439E-008     199.06  <-- SCF
------------------------------------------------------------------------ <-- SCF
 
Integrated Spin Density     =    0.113503     hbar/2                        
Integrated |Spin Density|   =    0.134033     hbar/2                        
 
Final energy, E             =  -1484.756074138     eV
Final free energy (E-TS)    =  -1484.764584585     eV
(energies not corrected for finite basis set)
 
NB est. 0K energy (E-0.5TS)      =  -1484.760329361     eV
 
 
 ***************** Stress Tensor *****************
 *                                               *
 *          Cartesian components (GPa)           *
 * --------------------------------------------- *
 *             x             y             z     *
 *                                               *
 *  x      0.000358      0.000000      0.000000  *
 *  y      0.000000      0.000358      0.000000  *
 *  z      0.000000      0.000000      0.000358  *
 *                                               *
 *  Pressure:   -0.0004                          *
 *                                               *
 *************************************************
  
 +------------+-------------+-------------+-----------------+ <-- min BFGS
 |    Step    |   lambda    |   F.delta'  |    enthalpy     | <-- min BFGS
 +------------+-------------+-------------+-----------------+ <-- min BFGS
 |  previous  |    0.000000 |    0.000054 |    -1484.764591 | <-- min BFGS
 | trial step |    1.000000 | -1.582E-006 |    -1484.764591 | <-- min BFGS
 +------------+-------------+-------------+-----------------+ <-- min BFGS
  
 BFGS: finished iteration     3 with enthalpy= -1.48476459E+003 eV
  
 +-----------+-----------------+-----------------+------------+-----+ <-- BFGS
 | Parameter |      value      |    tolerance    |    units   | OK? | <-- BFGS
 +-----------+-----------------+-----------------+------------+-----+ <-- BFGS
 |  dE/ion   |   1.580266E-008 |   1.000000E-005 |         eV | Yes | <-- BFGS
 |   Smax    |   3.582270E-004 |   5.000000E-002 |        GPa | Yes | <-- BFGS
 +-----------+-----------------+-----------------+------------+-----+ <-- BFGS
  
 BFGS: Geometry optimization completed successfully.

================================================================================
 BFGS: Final Configuration:
================================================================================
 
                           -------------------------------
                                      Unit Cell
                           -------------------------------
        Real Lattice(A)              Reciprocal Lattice(1/A)
   0.0000000   1.7758095   1.7758095       -1.7691045   1.7691045   1.7691045
   1.7758095   0.0000000   1.7758095        1.7691045  -1.7691045   1.7691045
   1.7758095   1.7758095  -0.0000000        1.7691045   1.7691045  -1.7691045
 
                       Lattice parameters(A)       Cell Angles
                    a =    2.511374          alpha =   60.000000
                    b =    2.511374          beta  =   60.000000
                    c =    2.511374          gamma =   60.000000
 
                Current cell volume =   11.200028 A**3
 
 BFGS: Final Enthalpy     = -1.48476459E+003 eV
 BFGS: Final bulk modulus =     242.67366 GPa
 
 ***************************** Symmetrised Forces *****************************
 *                                                                            *
 *                        Cartesian components (eV/A)                         *
 * -------------------------------------------------------------------------- *
 *                   x                    y                    z              *
 *                                                                            *
 * Ni        1      0.00000 (mixed)      0.00000 (mixed)      0.00000 (mixed) *
 * Cu        1      0.00000 (mixed)      0.00000 (mixed)      0.00000 (mixed) *
 *                                                                            *
 ******************************************************************************
 
 *********** Symmetrised Stress Tensor ***********
 *                                               *
 *          Cartesian components (GPa)           *
 * --------------------------------------------- *
 *             x             y             z     *
 *                                               *
 *  x      0.000358      0.000000      0.000000  *
 *  y      0.000000      0.000358      0.000000  *
 *  z      0.000000      0.000000      0.000358  *
 *                                               *
 *  Pressure:   -0.0004                          *
 *                                               *
 *************************************************

Writing analysis data to NiCu.castep_bin

Writing model to NiCu.check
 
 A BibTeX formatted list of references used in this run has been written to 
 NiCu.bib
 
Initialisation time =     17.28 s
Calculation time    =    183.08 s
Finalisation time   =      0.16 s
Total time          =    200.52 s
