#BIOSYM hessian 1
@Type: Hessian Update
@Units
 distance: 	A
 energy: 	Kcal/Mol
#header
@natom 19

#label
L1      L2      L3      L4      L5      L6      L7      L8      L9      L10     L11     L12     L13     L14     L15     L16     L17     L18     L19

#element
Li Li Li Li Li Li Li Li Li Li Li Li Li Li Li Li Li Li Li

#matrix
57
 3.031148923901E-05
 -6.564992901552E-07 2.525984478571E-05
 4.460063179897E-06 -4.689800597120E-06 4.440679097014E-05
 8.449194012786E-09 -1.555538571884E-09 -1.139987066408E-09 1.811500839068E-05
 -1.134188575338E-08 8.949998096579E-09 -1.845230331344E-08 -3.178784351856E-07 2.107870833043E-05
 1.840610080832E-09 1.671113532764E-09 1.621995561713E-09 -4.258344946029E-07 4.927722819226E-06 2.100122189154E-05
 -2.459735086386E-06 -5.247761093638E-06 2.212642993703E-06 -3.976072824365E-09 2.287756536420E-08 6.162116206333E-09 1.957325651591E-05
 -4.975463992665E-06 -9.509265532121E-06 3.674032939146E-06 5.157783122371E-09 2.828237781318E-08 2.768662995769E-08 1.218847900828E-05 4.637764928866E-05
 2.295739079734E-06 3.723011352907E-06 -1.486858029444E-06 -1.654824930341E-08 3.868721385635E-08 1.617085252487E-08 1.106367258230E-05 -6.841763894432E-06 3.599569237012E-05
 1.066158236209E-08 1.230952280688E-08 -1.029724001317E-08 -4.519895803138E-09 1.902353915101E-08 1.098650559475E-08 -1.182073651193E-07 -2.459310411964E-07 -2.915418433200E-07 7.049622166168E-05
 -1.435975596194E-08 -3.819413393076E-08 4.294780031605E-08 -3.188926874126E-08 1.011786289484E-08 -1.405304590315E-08 -2.886930625848E-08 6.787958637611E-08 -6.831288056078E-08 8.697769387300E-06 3.620617420979E-05
 1.996504287709E-08 1.556382314751E-08 -6.047399442108E-08 -3.661009450538E-09 -1.258485547283E-09 4.449938722435E-08 -3.290307199006E-08 -2.397593937007E-07 2.917952922104E-08 2.038674785070E-06 -3.175951838944E-05 4.002109174504E-05
 -3.885697818797E-09 -2.968009507981E-08 1.612408983189E-08 2.877425790966E-08 5.761297884577E-08 8.888669435763E-09 1.188862579676E-07 3.016438876662E-07 4.604152692843E-07 -1.891748441760E-05 -1.601324614819E-05 1.348336341348E-05 2.984277760155E-05
 -6.706744777068E-09 -7.305451181873E-09 -1.717282341932E-08 3.048564591444E-08 1.953492131613E-09 -5.212757581196E-08 1.601846269195E-08 -1.046203369871E-07 -1.505608277176E-08 -1.629228742582E-05 -1.382133981782E-05 1.108580589802E-05 3.997770903399E-06 3.192104476775E-05
 1.739095126395E-08 2.011080339465E-08 -7.361246607685E-09 5.881558088679E-09 -5.460620362308E-08 7.981437418517E-09 -1.515427787238E-09 -1.107756347508E-07 1.346203201149E-08 1.268255492153E-05 1.082072465903E-05 -8.716857479975E-06 -1.075604400511E-05 -1.333126109737E-05 1.154540666459E-05
 -2.328487724713E-09 -2.925049329901E-08 -1.242255355591E-08 1.730216063376E-07 -2.253049201499E-07 2.427543736714E-07 -6.924044033003E-10 1.773393225583E-09 -2.214555526930E-08 1.645001928970E-08 -1.802148631126E-08 -1.015674151305E-08 1.803594950594E-08 -8.392124103181E-09 -5.524338591343E-11 2.175944025314E-05
 -9.256078243224E-09 -2.037578502920E-09 -4.328084630969E-08 -1.556103428360E-07 -3.418708776385E-06 3.390054223178E-06 -1.051857861382E-08 -3.377467890688E-08 -1.378758337346E-08 -1.821484027417E-08 -8.734475352246E-08 8.195013896689E-08 5.496928645541E-08 1.050927005354E-08 -4.584389450625E-08 3.729317572705E-07 2.640386121729E-05
 1.111440316534E-08 -4.489666488949E-08 2.823331857593E-10 1.735556116561E-07 3.389424756579E-06 -3.378383535540E-06 1.293698128113E-08 -1.238856823780E-09 2.463876670988E-08 3.054128962891E-09 -6.935666049498E-09 2.168338315449E-08 -1.824309888032E-08 -2.168605953407E-09 1.877583235128E-08 -1.459346746544E-06 6.715202821143E-06 2.626839398793E-05
 -1.234682752888E-08 -3.594406981257E-08 5.057656776325E-09 7.041726109948E-09 -1.974904636118E-09 1.466193901079E-08 4.743200414605E-08 1.330232096654E-07 6.202656173176E-08 -8.639345168023E-06 9.547368785061E-06 -1.007531672433E-05 -5.117710495770E-07 -5.834270762973E-08 2.039727156741E-07 -8.249938132529E-09 -6.052669117156E-09 1.874248485378E-08 3.101872996647E-05
 5.445041000365E-10 1.362249002367E-08 -1.367222013993E-08 4.210230004883E-09 2.506391447533E-09 -1.997949975338E-08 -4.113168848484E-08 -6.576318279278E-09 -2.479064828477E-08 9.234052552767E-06 -1.005061383498E-05 1.067416703347E-05 3.296137348083E-07 -1.332687412366E-07 9.529487172817E-08 2.636279849786E-08 1.809618330049E-09 -5.058193921496E-08 -5.424109427626E-06 4.285587730645E-05
 3.399613174632E-08 -3.555811498839E-08 1.549040690875E-08 1.376026027674E-09 9.711624528035E-10 1.039329500349E-08 1.528091421199E-08 -3.656187916965E-08 9.130227496866E-08 -9.826837082120E-06 1.091451807948E-05 -1.174215461035E-05 -4.170771346618E-07 -3.390382788765E-08 1.400587575625E-07 4.557414183313E-08 -5.517927789811E-08 -5.121596287802E-09 2.134699821419E-06 -4.611792984354E-06 2.586133413661E-05
 -3.777085382048E-08 1.268728137237E-08 -2.800320460660E-08 6.509450701226E-09 1.696924517751E-08 -1.333326266312E-08 -1.439416017697E-06 -6.183683736990E-06 2.945544729083E-07 -1.275649803697E-07 -1.076115519170E-07 1.671484815962E-07 -1.603110225538E-06 1.467118450917E-06 1.726833571482E-06 -1.709708038605E-09 -8.183696308962E-09 2.522360808555E-09 -8.346158864910E-09 -1.118420783952E-08 -5.504415944317E-09 7.428387758316E-06
 1.652636790423E-07 -7.294944449476E-08 1.106548198066E-07 1.067732848769E-08 -1.197454345680E-08 -1.534049660129E-08 -5.921043550180E-06 -3.016333068881E-05 2.081034503202E-06 5.703723834766E-07 3.588029762617E-08 1.987294256989E-07 8.316086419467E-07 -1.326113545623E-06 -1.225296342718E-06 -1.256859824934E-09 2.336914675119E-08 1.661494422291E-08 -1.186239691285E-07 1.800783109818E-07 -3.259304102936E-08 7.053450186514E-06 3.342784392042E-05
 7.915616117464E-08 -2.035935029530E-08 1.789791901012E-07 -8.037250202107E-09 -1.258095928740E-08 -1.424157326753E-08 4.939952091776E-07 1.741954843267E-06 -2.762985170989E-07 4.042498685804E-07 -2.331349992759E-07 3.536662905318E-07 1.602780023323E-06 -1.284967865102E-06 -1.589482317718E-06 -4.131672580003E-09 1.625047687246E-08 2.080069744345E-08 -1.771108708732E-07 8.295369189004E-08 -7.989937593521E-08 -1.003231526301E-05 -1.006797993191E-06 3.172708172377E-05
 6.534030752150E-08 -1.045174392674E-08 4.565297572565E-08 -3.160871688148E-09 -1.094772551135E-08 -3.124343418737E-08 -4.975909603141E-08 7.176501590785E-07 1.272878194678E-07 -1.078988102974E-05 1.463014650524E-06 2.334673761309E-06 -7.594619466522E-06 1.110508686693E-05 -2.535947461762E-06 -1.833609168177E-09 -1.642400922333E-08 1.363155696537E-08 -3.048078477415E-06 -2.667291091078E-06 5.527180261831E-06 -3.073510680460E-06 -7.607269999243E-07 8.832798170531E-06 2.517631079578E-05
 -7.028228545734E-08 8.504416434136E-08 -3.279598944278E-08 1.197395389517E-08 1.638165284954E-08 4.072326575344E-08 7.558761148274E-07 -3.901168325320E-06 -3.584649563976E-06 1.563000234477E-06 1.001503707103E-07 -2.766961745199E-07 1.072416875636E-05 -1.650235579456E-05 4.155863461422E-06 2.072406437154E-08 2.888141893183E-08 -1.190178344664E-08 -2.791640295699E-06 -1.955657860510E-06 3.966519385858E-06 -5.693511144139E-07 -2.557655567632E-07 2.205191375724E-06 -1.172526543329E-05 3.314942003132E-05
 -1.108538211935E-07 -4.759852946620E-08 -1.347049965158E-08 -1.028709103130E-08 2.497020568104E-08 2.409600967834E-08 1.421885121177E-07 -3.299712941315E-06 -3.841527104806E-06 2.552555540783E-06 5.272679182013E-08 -1.357432933895E-06 -3.145260762087E-06 3.737593014801E-06 -9.796021211723E-07 1.554260462293E-09 -3.811142730300E-09 -3.026636734006E-08 5.285388238874E-06 3.897074758681E-06 -8.426390123217E-06 9.116536295555E-06 1.866843364645E-06 -2.855690711840E-05 -1.378383557074E-05 -9.251980198439E-06 4.362452997344E-05
 1.373474017726E-08 -6.234941676109E-08 6.234618321239E-08 -2.276028030269E-06 5.259210025480E-06 1.189353017431E-06 -9.929680991485E-08 -1.523771888491E-07 -5.349661687219E-08 -2.297303259308E-08 -2.653032429362E-08 1.899819434948E-09 3.673888254775E-08 6.011093429451E-09 -7.083281205521E-09 -3.779049292575E-06 1.742664452500E-06 7.907288807072E-06 -1.914934998304E-08 1.076283894801E-09 -1.400835779222E-08 -6.997750925222E-09 1.165643281411E-08 -1.828706608304E-08 -9.614004327006E-09 1.397908772417E-08 1.655664609244E-08 3.789615990776E-05
 5.627864658220E-08 -1.359569092694E-08 -1.883054121671E-09 5.276677017947E-06 -1.264100514414E-05 -2.716285184700E-06 2.585188308620E-08 8.243311056693E-08 -3.388628909544E-08 -1.717732488458E-08 -1.332894890084E-08 -1.201161868498E-09 1.307840005063E-09 -7.926347529969E-09 1.665138970577E-09 1.718500331744E-06 -7.570225721076E-07 -3.704099660629E-06 3.133487208406E-11 1.201263595062E-08 8.356289641571E-09 2.794869841643E-09 -1.677587872368E-08 -9.702551830284E-09 -1.847084064980E-08 -1.235747640238E-09 1.097253534148E-08 -1.188706572178E-06 2.630556161073E-05
 -2.775619757484E-08 -1.085511225035E-08 -1.973383705943E-08 1.101518166921E-06 -2.737982965428E-06 -5.787777939529E-07 -2.464986543980E-08 -1.858277243835E-08 -6.426104289708E-08 3.605873094385E-09 4.542919975834E-09 -1.808816039390E-08 9.890774060989E-09 6.563320292742E-09 -5.115874450429E-09 7.900300025288E-06 -3.654025700779E-06 -1.680790104732E-05 -2.849518163547E-09 2.199032971848E-08 4.111097306858E-09 -1.280554970071E-08 1.104177840245E-08 -1.020674883402E-09 3.186926472700E-09 1.174990126939E-08 1.365618758977E-08 -5.838602965813E-06 -1.813478927039E-06 2.851021057492E-05
 -1.173652888842E-05 1.453535827587E-06 2.594621017087E-06 -2.450190203695E-08 2.870876733040E-08 -1.358451496085E-08 3.249780029735E-08 -3.622924943296E-08 1.368352055243E-09 4.167427472318E-09 3.291089542699E-08 -2.979878707442E-08 -7.951686348137E-08 -1.798597624564E-08 4.146844927882E-08 -8.804613191349E-06 5.783868912944E-06 9.314539796065E-07 4.926498922337E-08 4.704779759814E-09 4.017654150297E-08 -2.095733375495E-08 2.473212920280E-09 2.783538105918E-08 3.443128034509E-08 -2.005164838047E-09 -4.421449928366E-08 -2.229282588531E-06 1.749805798118E-06 -4.543842443704E-06 3.350951904155E-05
 1.246274717976E-06 -1.086297778705E-07 -3.417820567367E-07 4.050827054815E-10 -1.169010306533E-08 1.537839168290E-08 4.050598995584E-10 -1.321504843625E-08 8.029838396595E-08 -6.436008593456E-09 1.327620049934E-09 -3.572967217475E-09 -1.695797140496E-09 -7.347253658633E-09 3.025917400347E-08 5.770689929291E-06 -3.685416014649E-06 -6.054405233479E-07 9.863248960769E-09 -4.154196217027E-08 5.855901510612E-09 6.168015219862E-11 -1.167011532405E-08 -3.444022627110E-08 5.072897710103E-09 2.906920023756E-08 -6.293388779388E-09 1.932200286812E-06 -1.477965790770E-06 3.806479392772E-06 -6.674432474062E-06 1.205679909207E-05
 2.787371309755E-06 -3.550784444486E-07 -4.799463204172E-07 3.168341378112E-08 8.364659646118E-09 -1.625633360766E-08 -1.996426219658E-08 3.113805509993E-08 -7.361455752464E-08 -9.758755187877E-09 -4.835718507038E-08 3.082196291565E-08 8.225652443442E-09 1.646635245540E-09 -1.845977210979E-08 9.108936845688E-07 -5.591587460112E-07 -6.447397415894E-08 -3.343569613171E-08 1.760812977272E-08 -2.181194652689E-08 7.848965121953E-09 -2.285212589195E-08 -2.731948448619E-08 -2.442694333598E-08 -4.699201693779E-11 1.380879578172E-08 -4.635132760340E-06 3.787824828534E-06 -9.199205293396E-06 3.650482748777E-06 -1.233329154669E-06 3.278725067653E-05
 -4.452796553872E-07 3.281385033599E-07 -3.693855062873E-07 3.338884826284E-08 -8.807678547999E-10 -4.980290191646E-08 -5.737458298017E-06 2.007042732381E-06 -9.990663272115E-06 -1.808935535460E-09 5.721311097997E-08 -1.347453230138E-08 -7.279306931859E-08 -9.419248368532E-09 -1.661130358790E-08 2.324389650733E-08 1.938696665326E-08 -3.991953024056E-08 2.226116507019E-09 -1.520476803507E-09 9.123127029589E-09 -1.059660458061E-06 -1.367314929613E-06 -7.069607058964E-07 2.047565766858E-07 -4.615874701281E-07 -2.300335014706E-07 2.089004476651E-07 -4.642606764521E-09 -1.342556173583E-08 5.895513252671E-08 -1.475804399547E-07 3.208591836720E-07 2.736351902385E-05
 -2.865140328376E-07 1.667884689266E-07 2.062720821634E-09 1.844714786590E-09 4.232693063312E-09 -6.099499581540E-08 1.380481250519E-06 -3.760152715369E-07 2.985327475883E-06 -2.089378542141E-09 1.159637059815E-08 -2.515002648083E-09 7.737040679924E-09 -2.418331665258E-08 -7.636881900102E-09 7.673002933572E-09 2.360932242530E-08 -4.715047460185E-08 -1.759751527495E-08 -8.809121434440E-09 1.318106900444E-08 -1.550846544362E-06 -1.900835024002E-06 -1.471243082483E-06 4.544229533547E-08 -6.142140546686E-08 -1.517926809905E-07 1.804294133994E-07 7.570634970520E-09 -9.135375064257E-09 3.444593477667E-08 -9.112948744618E-08 6.765115344937E-08 1.390714424573E-05 1.426745687234E-05
 2.879205739555E-08 2.829311795374E-09 -1.603393736260E-07 -2.141550854481E-08 -5.208988459690E-08 -5.179988115698E-09 -1.029936422824E-05 2.580099819363E-06 -1.892446755067E-05 -6.398887122455E-09 -1.581038344503E-08 -1.069532700490E-09 -2.141234666115E-09 5.281516655701E-08 -2.533760196064E-08 9.186820137126E-09 4.284271402924E-10 5.749076707642E-09 9.960846054856E-09 -1.608186195935E-08 -2.828630489343E-09 -1.289925580367E-06 -1.611958308575E-06 -1.562625442464E-06 9.347996856324E-09 -5.756915607668E-08 -1.189616844531E-07 -1.540544928077E-08 -3.616257636829E-08 5.298114089821E-08 5.444428137844E-09 1.459156647568E-08 4.917328441984E-08 -2.849131465966E-06 -1.234683054703E-05 3.164691579489E-05
 -2.279968966154E-06 1.096854198901E-06 7.082746734955E-06 7.800460171468E-09 -1.016701006446E-08 9.132327386292E-09 -3.424817982450E-08 -8.861773047460E-08 -1.830741485541E-08 -1.651209067663E-08 -3.605679666894E-08 4.037185297910E-08 3.406701055423E-08 2.654185530417E-08 -6.592240078910E-08 -2.821094163959E-08 -5.485338197147E-10 -2.359265004855E-09 -6.846493493694E-07 -3.992553126741E-06 -8.130123260924E-07 -2.207169948824E-09 -1.773152729218E-08 3.023983632891E-08 -4.341510732045E-08 1.294099706220E-08 7.716137622594E-08 3.816303896610E-08 2.409048126324E-08 2.746801464835E-09 -7.473728413553E-06 -3.802925285221E-07 -8.430289482512E-06 1.823104575875E-08 7.266979964550E-08 -2.657453104750E-08 2.681090075726E-05
 1.083148723172E-06 -4.864014424731E-07 -3.208413329848E-06 -9.758307246964E-09 -5.404838089750E-09 2.993269064755E-09 1.751038533058E-08 -4.686071500660E-08 -1.966030607430E-08 -6.917998769093E-08 -7.123710316020E-08 6.411470880359E-08 4.272861105401E-08 2.888498075568E-08 -7.595934706842E-08 3.588131874342E-10 3.320853798428E-08 5.156332533884E-08 -3.929589848617E-06 -2.369602343802E-05 -4.295406979011E-06 9.275620940617E-09 -3.526203989076E-08 1.998855427982E-08 -5.804643864175E-08 6.622767954034E-08 5.465952678350E-08 2.404838658488E-08 -4.928474380925E-08 -3.997238932759E-08 -4.128187325635E-07 9.186295448035E-08 -4.500365447440E-07 3.746226857696E-08 1.849911615278E-08 1.046033892244E-08 -1.234702600776E-06 3.379190687497E-05
 7.022580274469E-06 -3.206467510544E-06 -2.238788705077E-05 9.971688373753E-09 3.185711952815E-09 -3.701834713751E-09 3.715223046645E-08 6.406696514425E-08 6.855644802062E-08 6.333207614850E-08 -2.848165933021E-08 7.639413060205E-08 -5.752660030783E-08 9.989337094641E-09 1.032985259989E-08 -1.291760833884E-08 5.156216635641E-08 3.226537699140E-08 -7.919673626122E-07 -4.291393877884E-06 -8.354405314490E-07 -8.483549221771E-09 9.471309618176E-09 -3.224356183658E-08 -2.212856998636E-09 -2.285884129719E-08 -3.700868210405E-08 -1.985738837150E-08 -1.628052209067E-08 -3.206414681169E-09 -8.428041508730E-06 -4.924667484523E-07 -9.477932916267E-06 -5.097951756491E-08 -8.054646667284E-08 2.041620824985E-08 -3.764183825776E-07 6.380844266572E-06 3.353024213775E-05
 -8.333275261106E-06 8.570490307223E-06 -1.023504121932E-05 -2.632235627680E-09 -1.640139455475E-08 -2.203543244159E-08 -9.583713649466E-06 -3.558562672745E-06 -2.672416019270E-06 1.814295989960E-08 -2.421314991902E-08 3.961245887613E-08 1.447798476174E-09 9.275504930687E-09 2.406285181400E-10 9.575114831498E-09 -1.291187888179E-08 1.809070747740E-08 5.171230105051E-09 2.450525703161E-09 9.493820167594E-10 6.721695048966E-09 -4.403518379013E-07 -5.369186100162E-07 -1.843141662269E-07 2.957012736940E-07 2.146235933907E-07 -2.562450233246E-05 -7.231128080537E-07 -1.366921171373E-06 -3.339634942894E-06 -2.389540225377E-06 5.059561634346E-06 -1.867738971777E-05 -1.473498240326E-05 1.432775060238E-05 -1.189363942430E-09 -6.340407154361E-08 6.787923850898E-08 7.079028324675E-05
 8.815174848871E-06 -9.281315464494E-06 1.075002737597E-05 -4.122039778118E-09 3.772183811453E-08 -3.272647402212E-09 -3.312150320689E-06 -2.048694824335E-06 -8.610154021190E-07 -4.097572081137E-08 7.948047584303E-09 -4.339540635486E-08 2.809618423549E-08 3.445543689954E-09 -3.083828590411E-09 -4.299657042289E-09 1.932117321268E-08 7.506258649531E-08 -1.293581911318E-08 -5.954951241101E-08 1.664069570543E-08 -2.129928818767E-07 2.562446591672E-07 8.350138348143E-08 2.423119997484E-08 7.520031598852E-08 -1.939022905449E-07 -8.007511044133E-07 -3.307712193038E-07 7.892734619730E-08 -2.496886280945E-06 -1.612895965090E-06 3.766508391679E-06 -1.550763202264E-05 -1.196075715024E-05 1.145104489218E-05 -5.422263933831E-08 6.346670620288E-08 8.123658539638E-08 4.984682791286E-06 3.981674174021E-05
 -1.056589828798E-05 1.089347188256E-05 -1.293988995056E-05 3.210907945225E-08 -1.240523713602E-08 1.125499832230E-08 -2.639472171688E-06 -5.465979842419E-07 -4.152857937353E-07 2.044466927785E-08 -1.225886921941E-08 2.249543133135E-08 -5.638694605523E-08 -1.960710545921E-08 2.512384554289E-09 2.618896712519E-08 -5.047130119807E-09 -7.647518340451E-08 1.603601561070E-08 4.796871009768E-08 -3.857712246906E-08 1.267469464196E-07 -2.572515329889E-07 -2.802275478457E-09 1.126703906144E-08 -4.011068682909E-08 9.486509239804E-08 -1.299106754270E-06 1.286477977379E-07 -1.265297409902E-07 5.290188668425E-06 3.848318442672E-06 -8.353229187768E-06 1.411033208453E-05 1.123354869987E-05 -1.087492250649E-05 2.365390330626E-08 -3.624986396789E-08 -4.626869455751E-08 -1.048435917284E-06 -3.237702218974E-05 3.614287228281E-05
 1.684097284335E-08 -3.626086994083E-08 1.114263268477E-07 -8.146798888421E-06 1.411101039548E-06 4.924777027287E-06 -1.690822645960E-07 -2.418131355800E-07 -1.108375199136E-07 -8.548262459225E-09 -4.038439340398E-09 1.661986743632E-08 -1.783211592413E-08 -1.777606531462E-08 1.150337446412E-08 -1.834743027885E-08 -2.455611981781E-08 1.869920392847E-08 4.837733977820E-09 6.537601608025E-09 -8.316250922402E-09 -2.040723306397E-08 2.821339874048E-08 -1.429832608657E-08 2.495831701179E-08 -4.184925414595E-09 -3.397863297963E-08 -4.162896871650E-06 -6.906266390640E-06 2.769377431810E-06 5.177321605953E-08 6.736347443396E-08 -1.397548669350E-07 -1.889725770996E-06 8.920992680796E-07 1.166675371389E-07 6.650719302765E-09 5.385375047748E-09 -3.746759970299E-10 -5.072151760217E-06 8.598266073132E-06 -4.057656219582E-06 1.942099050987E-05
 8.545224895226E-08 -3.968998425110E-08 8.240675310229E-08 1.336565427522E-06 -2.963857586662E-07 -7.487633745969E-07 -2.386751653953E-08 6.060917615433E-08 -1.966488974138E-07 -8.098643584117E-09 1.631177739363E-08 -3.879593358355E-08 -5.457719316942E-09 -8.629523066519E-09 3.822427092297E-08 2.924193819818E-08 -2.187117942959E-08 3.041289348262E-08 2.783274700720E-11 -2.023129254787E-09 2.135061907599E-08 2.414165238041E-08 2.712756560037E-08 1.293357570148E-09 -1.298787653218E-08 -3.162640798277E-08 4.107125486091E-08 -6.921564100441E-06 -1.108445080482E-05 4.377555692244E-06 8.223308358007E-09 -9.661256377311E-08 8.271307813894E-08 1.060347051447E-06 6.625543257161E-09 7.262316036313E-09 -2.308608190084E-08 1.446399877939E-10 -1.629018838973E-09 8.209243535412E-06 -1.500649505521E-05 7.147472624242E-06 -3.927638593333E-06 2.722397730357E-05
 -4.415249990372E-08 2.254016453333E-08 -3.924305992565E-08 4.900724946528E-06 -7.729133288331E-07 -2.912640179936E-06 2.190747001589E-08 -2.636696445790E-08 1.631526533295E-07 -1.053580148041E-08 -1.962549592560E-08 3.000842658377E-08 2.321497500419E-08 2.411445528193E-08 -3.403693450979E-08 -2.969084132613E-09 4.321489201153E-09 -5.104583237488E-09 1.155506465546E-08 1.657769134209E-09 -9.779554948120E-09 -1.012956606847E-08 -2.158491245222E-08 -3.720577139287E-09 -1.247385666032E-08 2.531929913561E-08 -1.527346542520E-08 2.719589821396E-06 4.394781867528E-06 -1.760799152839E-06 1.903521159140E-08 4.952030012479E-08 -5.218010605425E-08 -8.055141328068E-08 -1.250998822120E-07 -7.162796780924E-08 6.721205777363E-09 2.122248718843E-09 2.509180025386E-09 -3.912184261573E-06 7.233474718484E-06 -3.448030676049E-06 -3.669234933357E-06 -9.908792670967E-06 8.941423657158E-06
 -2.012207639628E-08 1.117147900871E-08 -2.445019080192E-09 -1.164548515113E-06 -9.965712949602E-07 -3.821016628369E-06 -8.852261915263E-09 -2.046138911634E-08 -1.571958209343E-08 -2.547812482788E-05 -1.597587951830E-06 -1.859315026509E-06 2.405688610019E-07 3.240510815382E-08 -1.478657245463E-07 -2.066838460367E-06 -6.034811854544E-06 -1.526845643967E-06 2.276113552935E-08 -7.110805583854E-08 8.605185510498E-08 -8.359130101691E-09 1.841519233164E-08 -1.174452552336E-08 -1.183693087337E-07 6.192468411867E-08 1.335270994506E-07 3.099218083744E-08 1.240412046888E-08 1.238080993983E-08 -2.394142499538E-08 -2.364728935667E-08 2.786479865088E-08 3.765922350796E-08 1.452527827561E-08 -2.471650050342E-09 4.447223452843E-08 2.460305896471E-08 -1.002601036196E-08 -2.482005000916E-08 -3.966115501619E-09 2.627827808148E-08 7.958005249684E-09 1.713566815771E-08 1.490411159488E-09 3.609924122020E-05
 -3.832939752317E-09 3.979651551944E-09 1.667805310626E-08 -9.053771201093E-07 -8.002115770591E-07 -3.312640392503E-06 -7.407436620899E-09 1.091447858433E-08 7.323600003227E-09 -1.516291913368E-06 -1.697179420094E-07 2.677251142090E-08 5.458306775563E-08 6.569320423222E-08 -3.450471027834E-08 -6.036134742831E-06 -1.821835693018E-05 -4.532200846128E-06 4.346594657834E-08 -3.343311402368E-08 5.941143660057E-09 1.227731770084E-08 3.329898352416E-09 1.172915641959E-08 1.517288046404E-08 -5.384444166581E-08 3.142547572158E-09 -9.525927723632E-09 -1.041287898972E-08 1.044821774172E-08 -2.350968522371E-08 1.943450571872E-09 -2.622220141778E-08 -1.969047132354E-09 -4.321860021941E-09 4.710627074182E-09 -3.600207130003E-09 -3.296985251480E-09 -3.890092416073E-08 -5.785379790923E-09 -2.010485098862E-08 7.393306986179E-09 1.383175782074E-09 1.332177852335E-08 -4.517118400750E-10 7.097772245961E-06 2.992293240325E-05
 -3.774990124313E-09 5.260985033789E-09 9.783255727048E-09 -3.845722197686E-06 -3.296967241819E-06 -1.354576080070E-05 1.780144218217E-08 1.273594319515E-08 -3.794892442081E-10 -1.930127126181E-06 7.083879146437E-08 -5.117294159600E-07 3.423986316375E-08 -3.792554522765E-08 -3.757379846547E-09 -1.500786054529E-06 -4.574494672661E-06 -1.093620873085E-06 -5.965534182589E-08 -8.575321193371E-09 -5.997911649776E-09 -8.235438311099E-10 -9.530496093158E-09 -1.963393965495E-08 -4.719493817461E-08 -2.877015764522E-08 9.790124289271E-08 -1.061742920794E-08 2.512035629098E-08 -9.804627764419E-09 -6.101838342225E-09 -8.350365420644E-09 1.024937534052E-08 1.917216394917E-09 2.603955864200E-09 -9.474110994549E-09 -1.252971867435E-08 -1.045646820572E-08 -4.737130504429E-08 1.512759351874E-08 3.636001924420E-10 -7.922468951454E-09 7.095672049756E-09 -1.368444487988E-08 -9.017669928679E-09 2.513829773152E-06 -1.021605283011E-06 2.680061387302E-05
 -5.141150454857E-06 -5.362875340212E-06 -5.924021942516E-06 -1.356630662619E-09 -1.898194220023E-09 2.761407663261E-09 -1.094396013820E-07 6.419265011031E-08 -1.123516025821E-06 1.059340037878E-08 -1.819854983456E-08 1.184162660305E-08 4.742655713641E-08 2.648087672124E-08 -1.032358823562E-07 1.194661615612E-08 -8.658784150650E-09 6.318877462052E-09 -7.894790404943E-06 6.606973469211E-06 5.784612121876E-06 3.606600550329E-09 -4.604138300524E-08 7.710843679873E-08 -4.236516192378E-07 2.059847530249E-06 -4.339884036005E-07 1.121756093257E-08 -8.194069615340E-09 3.699240220715E-09 -1.712200548322E-08 4.114117376267E-09 -3.162026959846E-08 1.999281002081E-08 1.122902003288E-07 -1.877492513596E-08 -7.233456220692E-06 -3.923071014587E-06 2.854421562788E-06 2.003089247309E-08 -7.186788367139E-09 1.097206745346E-08 -3.866011975738E-09 -1.039973664512E-08 4.057598157266E-09 1.524002373028E-08 -4.773311058221E-10 1.172680768663E-08 2.071384397021E-05
 -5.437430195158E-06 -5.947327002189E-06 -6.333030025867E-06 8.933766019744E-10 -6.044794851083E-09 -4.351684639370E-09 1.455429352853E-07 -4.490045311904E-07 2.717869623153E-06 -5.141317572090E-08 3.174550689910E-08 -2.436725289039E-08 6.873966209499E-08 3.844142588933E-10 -7.980813482051E-08 -9.898596074730E-09 8.470893408003E-10 6.527610038599E-09 6.720525323211E-06 -5.666734270214E-06 -4.862817129167E-06 3.474058259902E-08 -1.078552517800E-07 -3.153629145862E-08 1.923548117749E-06 -1.087612726539E-05 3.223564727449E-06 2.451793783565E-08 -5.050403907971E-10 -1.175513210865E-08 -1.116845056012E-08 3.443215633348E-09 2.326344183995E-08 1.191599166807E-07 -1.872350812466E-08 -1.096472840568E-08 -3.857896508897E-06 -1.936390131056E-06 1.314653649097E-06 -1.274220449706E-07 -1.727452519556E-08 5.986988395835E-08 3.353600323578E-08 1.615367875946E-08 -1.674018697044E-08 -1.260611315847E-08 -3.964240231678E-09 -4.528865492272E-09 4.728228650307E-07 2.503158671593E-05
 -5.994634487237E-06 -6.298060561146E-06 -6.986790011520E-06 -6.359742851086E-11 -3.853668605997E-09 -6.309400479153E-09 -1.010976120295E-06 2.935164420693E-06 -1.131896704901E-05 1.087936202191E-07 8.041068402767E-08 -9.552270543739E-09 -9.501610277406E-08 -2.323469375925E-08 -4.755203771088E-08 8.608823754032E-09 3.817058345246E-09 2.750687222385E-09 5.854773851356E-06 -4.913219076509E-06 -4.419884460868E-06 -1.456124534429E-08 -4.429258827348E-08 -1.109235330588E-07 -4.805544110873E-07 3.009066538614E-06 -5.779730808540E-07 9.972213991795E-09 -1.534710015594E-09 -3.352885467548E-09 1.338202173150E-09 1.320079242142E-08 -2.801406444269E-08 -3.171152916807E-08 -6.347998741275E-08 -5.656084397441E-09 2.762327849598E-06 1.312198810155E-06 -9.539905927360E-07 3.035322976607E-08 -2.064255002692E-08 3.545007278829E-08 3.525815935042E-08 -1.015619338397E-08 7.515531024465E-10 -2.571492332596E-08 -1.313070514157E-08 -4.873322072871E-09 -1.132581960444E-06 4.040604455380E-06 2.442906303020E-05
 3.658816713068E-09 1.033783081665E-08 -6.909107182497E-09 -6.730946381995E-06 -5.237743082147E-06 -2.000605791247E-06 1.594234166986E-08 3.470716954249E-08 5.518853892083E-09 -3.879735749870E-06 3.023506770980E-06 -8.014991534327E-06 -1.643920056963E-06 -2.985389676418E-07 -1.039810832313E-06 -1.977148834658E-08 -2.707496049209E-08 2.831641222649E-08 2.487378484862E-08 -1.264866165077E-07 3.039693445779E-08 -1.543012302664E-08 9.306858723183E-09 -3.227867354254E-08 -1.957000417727E-07 1.050147088205E-07 2.149669998249E-07 1.267410215683E-08 -3.875291168834E-09 -4.441946189412E-09 -9.194001698283E-09 8.318592712515E-09 2.447988078360E-10 -1.458572182513E-08 -1.425681204866E-08 1.320031902894E-08 1.214810675842E-08 1.846288731176E-08 1.903248605094E-09 -6.412416132483E-09 -1.598818829463E-08 5.285678592068E-09 -1.422693872575E-08 1.469527948833E-07 5.779766025267E-08 -4.877301264924E-06 -3.472304563315E-06 7.018892974376E-06 -1.433553006234E-09 -4.146964504315E-08 -4.097208140587E-08 1.729385049328E-05
 -9.686473967739E-09 -7.036276967169E-09 -3.111821880053E-09 -5.218774161337E-06 -3.977290397218E-06 -1.465723853589E-06 1.075394699749E-08 -1.137795132377E-08 2.353760665616E-08 2.865111733076E-06 -2.644471958807E-06 6.696069926599E-06 -8.000896037113E-08 -9.759125320308E-08 -2.277081399545E-07 4.585358996378E-09 -5.774397693325E-09 5.129770460742E-09 5.185645288306E-08 -5.150137498120E-08 2.611135819711E-08 1.321287142994E-08 -2.277402478448E-09 -1.915867617789E-08 -5.560211596492E-08 1.744477334262E-07 -1.003720982082E-08 1.094688007636E-09 -8.120514035410E-09 1.356227974344E-09 2.524213227912E-08 1.370642316479E-08 -1.721367877290E-08 -1.966494580970E-08 -3.560305951946E-08 2.425200794085E-08 -1.021074852478E-08 3.314254648017E-09 2.610287519156E-10 4.710873586408E-09 2.735931723016E-08 -1.506751708378E-08 1.161087613525E-07 -7.939340205712E-07 -8.434130758503E-07 -3.411727800023E-06 -2.423744567371E-06 4.819429468330E-06 -3.708988320261E-09 -2.184975357339E-09 -1.921809042500E-08 5.729347936672E-06 9.880038189844E-06
 -5.455073188397E-09 2.302370224456E-08 -1.477520042619E-09 -1.923661476857E-06 -1.445183294554E-06 -6.444097626554E-07 1.148342798311E-08 4.237642160782E-08 -2.936205268979E-08 -7.569166071533E-06 6.656115930903E-06 -1.701492926812E-05 -1.246940284727E-06 -1.275757112038E-07 -2.347829122820E-07 -3.431835523260E-08 2.658161394789E-08 -2.089572395717E-08 -9.190331958783E-08 5.418061120716E-08 -4.079800998794E-08 -3.104046321311E-08 6.849470674949E-09 1.897299153583E-08 1.367640099583E-08 -1.849285471373E-07 8.548376307079E-08 -1.877671532200E-08 -1.696370114858E-08 9.946914185555E-09 -1.993800232691E-08 -1.926213471777E-08 1.305228135216E-08 3.418515373748E-09 3.570724027598E-08 -5.165736610247E-09 2.646733130998E-08 2.398424694483E-09 3.661953517465E-09 1.501586963965E-08 -3.533731861761E-08 1.443954501397E-08 3.009953371206E-08 -8.954300167013E-07 -7.883970802890E-07 7.020090117040E-06 4.810077626311E-06 -9.722912246308E-06 9.344409727189E-09 -1.720801656095E-08 9.760977547412E-09 3.814896240105E-06 -9.023909128020E-06 2.845415195903E-05