#BIOSYM hessian 1
@Type: Hessian Update
@Units
 distance: 	A
 energy: 	Kcal/Mol
#header
@natom 19

#label
L1      L2      L3      L4      L5      L6      L7      L8      L9      L10     L11     L12     L13     L14     L15     L16     L17     L18     L19

#element
Li Li Li Li Li Li Li Li Li Li Li Li Li Li Li Li Li Li Li

#matrix
57
 1.059539046139E+01
 8.382672170123E-01 8.875184990339E+00
 6.325871913888E+00 2.409811697638E+00 5.750574485925E+00
 7.509167677679E-01 -7.079454520342E-01 1.524814743890E+00 2.261494337055E+01
 1.607764592126E-01 -7.720386103406E-01 -1.082273266828E-01 2.840399270891E+00 9.614695174735E+00
 -5.804980933040E-01 -3.261349885034E-01 3.709510885426E-01 -7.002548866862E+00 3.971946230582E+00 1.790290904935E+01
 -4.893426147621E-02 5.116201193541E-01 6.429068956064E-02 4.834778981200E-01 7.697060832449E-02 -5.461588852865E-01 3.927845034255E+00
 -1.979089815769E-01 7.805031120378E-01 2.442623761474E-01 2.120998331246E-01 -1.978123780320E-01 -2.463330897799E-01 6.504031809340E-01 1.061060667005E+01
 -1.767609760685E+00 -7.226474327443E-01 -1.276119391835E-01 1.512349157261E+00 -3.689588270750E-01 8.675449872359E-01 3.436029234921E+00 -9.057714023153E+00 1.978380718408E+01
 -2.804397387197E+00 4.141297050869E+00 -6.208091041485E-01 -1.228276705135E+00 -8.059592014634E-01 6.955740772460E-01 -2.324444260737E+00 -1.601565667663E+00 -1.329761796538E+00 1.163152868989E+01
 3.031739799364E+00 -7.685429847508E+00 -3.511278370818E-01 9.430355876821E-01 4.018420197473E-01 -5.657205699663E-01 -3.466027082028E+00 -9.410543798582E+00 5.039836634849E+00 2.653687215963E+00 2.046629154238E+01
 5.312660124090E-01 -3.585341060238E-01 -2.573753686848E-01 1.186149185386E+00 8.289302038131E-01 7.727645741082E-01 -5.258865277524E-01 2.933222866353E+00 -3.495580260039E+00 2.072020066492E+00 1.428804687988E-03 4.803815864486E+00
 1.512706298279E+00 -7.167469972961E-01 -2.005575158870E-01 1.397438821711E+00 -1.533662350981E+00 -1.518374399561E+00 -1.621733270236E+00 3.444899704317E+00 -6.063870854749E+00 -4.624507001005E+00 -3.267270655985E+00 -9.547893247732E-01 2.004430319078E+01
 8.463369255665E-02 -1.366321766452E-01 2.122692752918E+00 -2.421474047568E+00 2.508738536176E+00 1.988302371029E+00 3.494733440625E+00 -2.876990739931E+00 4.203657790472E+00 -6.042752337796E+00 -3.337934489317E+00 -3.514122468355E+00 -2.597766686267E+00 2.931317626751E+01
 -1.097079222606E+00 -2.569657568559E-01 -1.180464512161E+00 -1.398541040640E-01 6.177880827293E-01 -3.568303301438E-02 -4.926772006833E+00 3.905904139964E+00 -1.206912065005E+01 -3.811006077474E+00 -3.936397636968E+00 -1.828979411398E+00 1.311101496072E+01 -1.198804824748E+00 2.333391487082E+01
 -2.058916902119E-02 -1.456765550021E+00 -3.931857306343E-02 1.267395525027E+00 -1.387086271835E-01 -3.494101018020E-01 -4.662878253002E-01 1.422582314407E-01 -4.172040725538E-01 -9.165053679734E-01 8.113654606674E-01 3.646025407531E-02 1.269467581967E+00 -7.615730875830E-01 8.447114564293E-01 8.686412060564E-01
 -4.096459767604E-01 1.890562316336E+00 7.323617389470E-01 1.427407198659E+00 -8.500407178199E-01 -1.314544904267E+00 2.009926222626E+00 -3.743282542827E-02 2.472386477045E-01 -1.195208009336E-01 -1.942780454179E+00 -6.588919917511E-01 -1.550333509274E+00 2.722690022859E+00 -1.444579958689E+00 -2.564179672042E-01 1.561859535458E+01
 8.367485119985E-01 1.342050774273E+00 1.532993081786E-01 -6.223598020168E-01 -8.354105577301E-01 2.673132081693E-02 -3.575107649962E-01 -2.011573925260E+00 -1.232960595614E+00 1.020920807971E+00 2.044373747629E+00 5.269709912638E-01 -2.493515149204E+00 9.232675941847E-01 2.550358491396E-01 -1.938536290413E-01 9.967771755071E+00 1.004725091217E+01
 -6.982196864555E-01 6.980896989255E-01 -6.697598698617E-01 -1.128167656430E+01 2.361401326408E+00 3.570118965499E+00 1.316414404744E+00 -1.094515099079E+00 -2.045354094167E+00 6.960046767724E-01 -1.114705416214E+00 -4.016017402346E+00 -1.874148076439E+00 1.108426371498E+00 1.837577234811E+00 -9.143975006443E-01 3.376676382874E+00 1.924946810728E+00 3.051189871969E+01
 -5.737235765730E-02 -3.202829077224E-01 -4.140303168479E-01 -2.009816512245E-01 -9.753304711462E-01 -1.073530887835E+00 5.188611623708E-01 8.275321175358E-01 6.821291585455E-01 -1.710138818374E-01 2.636386818454E-01 -1.096839433586E+00 -2.013103796362E+00 -1.194857642373E+00 -4.165082033779E-01 -3.140439192951E-01 1.655319478383E-01 1.987788242862E-01 3.067876483298E+00 7.305850516476E+00
 -2.721207056982E-01 -4.506491225987E-01 9.148016363874E-01 7.476676083534E-01 -1.544218615325E-01 -1.580725187310E+00 6.845798818504E-02 -8.367136412485E-01 1.091043118177E+00 6.774802474717E-01 1.671631483727E+00 -2.334149733389E+00 -2.405231263090E-01 2.560646462791E+00 9.702201153206E-01 3.683691043939E-02 2.176165812227E+00 5.836397410411E-01 4.978597992112E+00 8.730735185653E-01 6.359606410973E+00
 2.483737932524E-01 8.447190982167E-01 -1.154272064014E+00 -3.091029033959E+00 -4.824370969289E-02 1.109768184949E+00 8.866571081103E-01 -3.187837389955E-01 -4.489266059925E-01 1.169365704017E+00 -2.010423886019E-01 1.720363642181E-01 -1.243440308670E+00 4.220381030918E-01 -1.032296033367E+00 -7.734648633625E-01 6.019759447149E-01 1.714514834281E+00 4.467559846737E-01 3.680047090249E+00 8.303405619481E-02 1.167168122632E+01
 -3.806430907608E-01 -9.195826262288E-01 9.508267204778E-01 3.757978602461E-01 -2.051563198828E+00 8.862730504377E-01 -2.099951762832E-01 2.478828350669E+00 1.352398596265E+00 -3.715238403821E-01 -2.110336980915E+00 1.355012924641E+00 2.158285590454E-01 -2.744970195200E+00 -3.424019786861E+00 1.604499125759E+00 -7.389401734856E-01 -1.703225882664E+00 8.829391540469E-01 -5.349133789366E+00 -9.886998064523E-01 -3.985314030013E+00 2.084317724411E+01
 1.560516950672E+00 -2.007675155963E-01 6.032277330255E-01 1.661759940695E+00 -1.676579301968E+00 -1.796581921644E+00 -6.302815645978E-01 1.060130475456E+00 -1.168492756859E+00 -1.745826268997E-01 1.409814336590E+00 -1.725449090563E-01 -2.727399039363E+00 -4.879625239138E+00 -4.652394311810E+00 4.804672569160E-01 -1.289759863604E+00 -1.344676842285E+00 -2.210126837185E+00 2.765645894061E+00 -4.628254233255E+00 -5.709533393416E+00 2.731969699803E+00 2.049453755839E+01
 3.895473872820E-01 -1.358878374476E-01 8.114795273449E-01 1.452469490234E+00 -3.155807904286E-01 -9.309710669962E-01 -1.051980443292E+00 1.269390862017E-01 1.920266083585E+00 -1.900647831637E-01 1.144648406636E+00 5.504473575574E-01 -4.846986764099E+00 -1.920137330434E+00 -2.214620898431E+00 2.350092978039E-01 -3.325006805684E+00 4.238601560078E-01 -5.098250558275E+00 -2.483484362702E-01 -1.830476680927E+00 -7.756813095645E+00 2.673800354819E+00 4.964917425066E+00 2.146613069162E+01
 -1.732294729188E-02 -4.711413193524E-01 -2.170358036183E-01 -1.142635934740E+00 8.484867297497E-01 5.999774128744E-01 4.563798572190E-01 -2.032980075993E+00 1.668036376840E+00 1.579481656618E+00 2.329036797210E+00 1.106626683891E+00 -1.935426801616E+00 2.347545424816E+00 -2.161366979938E+00 9.280420487863E-02 -3.809852257361E-01 -1.280423234845E-01 1.343463332966E+00 -9.597947918921E-01 2.764493316793E-02 1.548784902865E+00 -6.489164401992E-01 -3.559290308192E+00 -6.192947346650E+00 5.980658929490E+00
 -2.178542015771E-01 9.591947673005E-01 -5.558338242148E-01 2.523493500704E+00 -9.427900185220E-01 -1.176142526739E+00 7.118295852277E-01 1.309757520539E-01 3.357139796622E-02 -6.346895448418E-01 -2.144204341804E+00 -8.591351626478E-01 -6.158912103945E-01 -2.841484451917E+00 -2.182633520890E+00 -1.221190814845E+00 -8.089098055396E-05 -2.922717951349E-01 -1.884161218416E+00 -8.816985271109E-02 -1.711940399641E+00 6.942659194133E+00 -3.767190408899E-02 -3.885041150017E+00 -1.300970795720E+00 -3.958727759235E+00 2.209567869472E+01
 3.629406482809E-03 1.752779950067E+00 -7.283796483407E-01 1.037127772899E-01 -1.721555704615E+00 -4.781459325266E-01 -3.156803140868E-01 -3.969037662017E+00 7.029415929429E-01 1.334206078035E+00 2.022179908784E-01 -9.972297865730E-01 4.582982592880E-01 4.225713401324E+00 -1.096655086063E+00 -1.374349210529E-02 2.348955613074E+00 1.682658599266E+00 -1.343498797131E+01 -6.226816645793E+00 -2.353817082059E+00 -1.088143157758E+00 2.970151137990E-01 5.602906918240E-01 6.950352182254E-01 6.627297903840E-02 -1.973997442987E+00 3.694987714084E+01
 -3.525556487941E-01 1.393425029121E+00 -1.926602140263E+00 1.764084910626E+00 3.229424803506E+00 -3.056908127610E+00 -1.263875096296E-01 3.417065261670E-01 4.110018499437E-01 -2.682070694136E-01 1.612360764770E+00 1.442773740650E+00 2.158908760496E+00 -5.278247505589E-01 1.531662806910E+00 -7.448505465965E-01 1.013788599168E+00 1.706209596904E+00 -6.497820908660E+00 6.120835794248E-02 -1.725447729753E+00 -1.502169300295E-01 -6.041061144727E+00 1.210229073533E+00 7.895268338183E-01 1.380375454107E+00 -2.849569373970E+00 -8.838947989543E-01 2.022217357798E+01
 3.398584457702E-01 -1.132922590290E+00 -4.537253665274E-01 1.036504705701E+00 -1.834527726598E+00 -1.148714561513E+01 -2.115732286404E-01 4.582497871928E-01 -2.112725703538E+00 -7.895650454133E-02 7.096698226612E-01 1.754926407667E+00 2.920177672020E+00 3.699998097081E+00 -4.770847238800E+00 7.540338454373E-01 2.422800494713E+00 4.758706258903E-01 -6.590898840109E+00 -3.264048549828E+00 4.452824427800E-01 -9.377440320790E-01 3.360948139101E+00 3.808968702704E+00 -1.594624546992E+00 -1.877514210911E+00 -1.098222037720E+00 4.765023362273E+00 -1.754279535967E+00 2.845224084209E+01
 4.901694214608E-01 8.293799821243E-01 6.216965000182E-01 -8.654642723108E-01 -6.733565575974E-01 8.180035214362E-01 4.773768525669E-02 -1.313151008516E-01 1.989200015652E+00 7.052199697981E-01 -8.929832528724E-01 1.178033601517E+00 -1.384380056962E+00 -3.018642279848E+00 -4.833722764850E+00 4.095910207797E-01 8.711598070917E-01 2.754395076182E-01 1.767867285342E+00 -3.700199735040E-01 -6.491684661365E-01 -1.718855688044E+00 1.595832274372E-01 1.136253085675E+00 -4.211566097966E+00 4.152089150841E+00 -1.717172675089E+00 -1.566427463109E+00 2.204843927434E-01 -1.256130588764E+00 1.634879253627E+01
 -1.525686667671E-01 4.039443136566E-01 -9.120906879928E-01 -1.821625008368E-01 -5.181159474911E-01 3.184965812131E-01 2.746144919310E-02 -7.104562851522E-01 -4.536825742893E-02 -1.285698611462E+00 -5.401184494633E-01 -1.831130149640E+00 -3.595232122388E+00 -1.372358560598E+01 -3.085958139664E-01 3.680877976738E-01 1.984943710452E-01 1.123348632336E+00 1.092360050476E-01 1.696676598136E-01 8.730160737848E-01 -1.536879713747E+00 -3.631531467109E+00 4.649737156815E+00 5.108771643233E+00 -5.378000092162E+00 1.365432392127E+00 7.638430122628E-01 -2.894187120022E+00 9.172479056537E-01 -7.955349160892E-01 2.641825229406E+01
 -3.370397511364E-02 2.548539349710E-01 1.140754073700E-01 6.308519999236E-01 8.176639758934E-01 -2.145613178160E-01 1.261275342282E-01 9.745359379470E-01 5.338335303915E-01 2.644040540008E-01 -1.553767477034E+00 1.329299725223E+00 8.184114812636E-01 -7.679393340049E-02 7.285595487256E-01 2.736236162949E-02 3.435591688447E-01 -8.261419869931E-01 8.109408282246E-01 -1.278255757459E+00 7.595539134329E-01 -2.229861978566E-01 2.379408095113E+00 -6.506182096756E+00 -1.757294507965E+00 2.412854775016E+00 -1.591090608725E+00 -2.682899769063E+00 -1.422356627413E+00 -7.927977725567E-01 -3.681691568668E+00 -4.800681413183E+00 1.522370117782E+01
 -1.529545313196E+00 -1.748231458423E+00 -8.550155083110E-01 4.284963235970E-01 2.739650419176E+00 7.525452325441E-02 -1.460250958140E+00 -8.256278347773E-01 1.460693801024E-01 -1.982835374821E+00 1.536657564960E+00 -6.581135707578E-01 -9.036782690712E+00 6.299391241625E+00 3.826552666760E+00 -7.050784376516E-01 -1.748180513762E+00 9.041408526106E-02 -1.052929172204E+00 2.143025288697E+00 5.954657140718E-01 1.929271897128E+00 -1.505133864109E+00 4.561958936553E-01 5.406758057149E-02 4.124088564120E-01 -5.620143728708E-01 -1.290607258875E-01 1.182741317056E-01 -2.358119742890E+00 -5.072647502165E+00 -2.818973841376E-01 8.289238049385E-01 1.664005983800E+01
 1.016581914336E+00 1.179083175232E+00 8.164937214994E-02 -4.207626123279E-01 -1.088095140924E+00 -6.432086767062E-01 -5.133667298630E-01 9.872991998567E-02 -2.144361307806E+00 2.204530099440E+00 5.892285139295E-01 4.882381678035E-01 6.993171854700E+00 -4.895716264862E+00 1.547510344716E+00 5.756855858521E-02 -5.088270526291E-01 -3.251001190695E-01 1.153364403291E+00 -4.001253686503E-01 -6.652366586949E-01 8.122816358165E-01 -4.642736952116E-01 -7.602748187113E-01 -8.890326892630E-01 -1.071731216407E+00 1.898862994494E+00 -6.599330847150E-01 6.792691486903E-01 1.104398812647E+00 -1.792925335116E+00 -9.409149473498E-01 -2.176824185808E-01 -7.331347241989E+00 6.001245895439E+00
 6.472591872415E-01 -1.832603291176E-01 1.182186705034E-01 -7.325974508498E-01 4.205455827969E-01 1.515653127997E-01 1.298738540481E+00 2.117795927619E+00 -3.568991453357E+00 -1.911592463300E-01 -2.039338139339E+00 4.389614585492E-01 7.631310983307E-01 4.285042521742E-01 -2.147033713857E-01 -2.467791807060E-02 -5.222042242598E-01 -1.463277679817E+00 1.603419521445E+00 -1.466014233955E-02 -7.669318013130E-01 6.441426038647E-01 -6.462866712349E-01 1.045595546754E+00 -1.559048237120E+00 1.275636064945E-01 -1.742780943539E-01 -3.005964940287E-02 -1.720929427815E+00 1.132463447144E+00 -1.222003759387E+00 4.109494682387E-01 -7.818258186047E-01 -1.662036384517E+00 9.172743008218E-01 3.094929695017E+00
 5.725744559181E-01 1.228127712453E+00 1.966258222562E+00 5.557270235498E-01 -1.336120766297E+00 -3.398499722099E-01 -3.941159567915E-01 -5.967505118776E-01 -7.363354762209E-01 -3.477064656852E-02 -1.972093163454E+00 8.872942133722E-01 -1.531970536793E+00 1.634584463501E+00 5.786176375224E-02 5.642364682131E-01 5.493920711394E-01 3.549518142860E-01 -1.319253231889E+00 -6.136001932153E-01 -1.111405298649E+00 -4.254573270193E-01 -1.097516876450E+00 -2.008089134777E+00 1.594917650578E-01 8.521932087100E-01 1.524807327371E+00 -2.622919993761E-01 -1.219656175940E+00 -4.739294584306E-01 -1.296605519246E-01 -2.197549108479E-01 1.913635371640E+00 2.161172762179E-01 4.954448639820E-01 -4.153980602802E-01 1.056802111608E+01
 -1.062711343481E+00 -2.006026918513E+00 1.396678976302E+00 -4.235889982144E-01 1.627035829264E+00 9.384300020497E-01 4.966493969277E-01 -7.393977481636E-01 2.310399871462E-01 -1.964354906479E+00 -1.082489743813E+00 -1.351514673340E+00 -1.258855493362E+00 2.204935201335E+00 2.120614976589E+00 9.931849438525E-01 8.569221427689E-02 -1.609543329281E+00 -1.076423807321E+00 3.923182843742E-01 -1.441698934601E+00 -9.277034658413E-01 -1.521325152866E+00 -7.375957061378E-01 6.557698413011E-01 7.389164320232E-01 1.389276791400E+00 -4.138983738086E+00 -6.163542058198E+00 -5.204520905958E+00 9.154277355614E-01 -3.867247980344E-01 8.209101628985E-01 2.969364486971E-01 -1.152848789709E+00 1.593827246219E+00 3.215898603093E+00 2.535849246885E+01
 1.995514587234E-01 -9.897584767296E-03 -2.903701586319E-01 -1.213187149797E+00 -4.975942075172E-01 -1.645393005007E+00 5.409663219085E-02 -1.049838716653E+00 -4.110583588239E-01 -1.429200886603E+00 -7.672491440923E-01 5.340639588354E-01 -4.833216975797E-01 -1.494979681720E+00 8.158149887851E-01 1.196536351661E-01 -2.100936107539E-01 6.991088543626E-01 -4.352034864150E-01 -3.104822013068E-01 -3.035201911010E+00 5.057141457292E-02 -1.418093593003E+00 2.254673301636E-01 1.614956610660E+00 -2.785109228752E-01 2.505642642921E+00 -1.201488410759E-01 -1.199659384387E+00 3.089496547229E-01 -3.900647096343E-01 2.115944935622E+00 -5.940887740204E-02 1.905252792240E-01 6.692796790795E-01 2.580756255644E-01 4.228132864743E+00 5.241455967334E+00 4.882565170002E+00
 1.058719324538E-01 -5.747565204667E-02 6.367587905761E-01 8.255289400332E-01 1.863168789017E-01 9.086302698934E-01 -5.298853884126E-01 -6.278041278649E-01 4.080750952929E-01 4.405170774762E-02 5.694806986314E-01 -9.440382820902E-02 -3.246781543685E-01 1.151642215426E+00 4.585587843292E-01 3.872854836457E-01 -7.160522929345E-01 -2.636653900951E-01 -1.962851685365E+00 -7.001379584743E-01 -7.230861525691E-01 -7.525872287932E-01 7.854846229164E-01 1.220706002976E+00 3.421767783404E-01 4.967529268271E-01 -1.510004669458E+00 2.352951896330E-01 -1.414158704833E-01 6.892784493488E-02 -1.439058635273E-01 -2.065291694566E-01 -1.099944667280E+00 8.509213163068E-01 -5.230360617192E-01 5.000708035115E-02 6.229264166508E-01 5.970630351968E-01 8.343103936131E-02 1.271040819068E+00
 1.423332234295E-01 -6.072542515127E-01 7.007582692741E-01 -7.432341687140E-02 1.923345001930E+00 -3.700452060362E-01 -9.373993814307E-01 1.646700607897E+00 -1.558975442320E+00 -2.893452166683E-01 -3.359139743070E-01 -1.082130471535E+00 -2.751140704262E-01 1.590222064553E+00 1.068641909794E+00 9.318415285368E-01 -1.141392492657E+00 -3.838589806904E-01 -1.108337405858E+00 4.201720975627E-01 1.048184145439E-01 1.673834719400E+00 -8.081146028725E-01 3.957165722529E-01 -3.096011395735E-01 8.964695508559E-01 -5.784142501361E-01 -2.072630593875E+00 -2.814208362337E-01 1.703185383497E+00 1.364386350584E-01 3.886058009588E-01 -4.896565812176E-01 9.286515679353E-01 -1.029357247951E+00 2.361129142190E-01 -9.294233646445E-01 -3.586233483665E-01 -1.035171196409E+00 2.142049472940E+00 1.349289130823E+01
 4.206144225482E-01 8.896061652285E-01 3.413221269241E-02 -6.761777099942E-01 6.896268226910E-02 -1.283251999587E-01 -1.529010450378E-01 1.507532808300E+00 -2.607088081257E+00 3.960943168076E-01 -1.394934520015E+00 -2.872987028157E-01 1.775180116785E+00 -1.412233058775E+00 1.015769130940E+00 -1.305356448136E-01 6.845962774524E-01 6.341373334528E-01 1.760829705812E+00 -1.541781203338E-01 4.535692182234E-01 7.281513533872E-01 -1.272618735187E+00 -1.099573957217E+00 -3.329163353704E-01 -6.276288861899E-01 2.448919427852E+00 -1.006104116480E+00 4.806380433872E-01 -3.651557149046E-01 9.447277599919E-02 9.261940797281E-01 1.054445838078E+00 -2.420937282902E+00 1.262347040167E+00 2.857100752172E-01 -4.565202285663E-01 -1.783891031269E+00 -5.277476683009E-01 -4.117763733093E-01 2.828062134865E+00 2.361936283358E+00
 -2.435190710281E-02 1.817513857333E-01 -2.436937517975E-01 -8.625189427835E-02 -2.031093660879E-01 3.000487297007E-01 8.674981154194E-01 -3.343725798125E-01 -2.144342203967E-01 -3.903282983239E-01 -5.755824556976E-01 -4.222650741383E-01 7.355081479629E-01 -1.232876007461E-01 4.739412128764E-01 -2.126255022147E-01 7.711032389713E-01 -2.839023584313E-01 1.139158782175E+00 -4.430398524833E-01 3.034228462285E-01 -6.218908809524E-01 -5.164738552590E-01 -1.523211424940E-01 -7.785968155952E-01 -4.980719899520E-01 -1.054168522204E+00 5.541236790471E-01 -1.026802124230E+00 1.645503382075E-02 -5.346127084802E+00 1.963109910035E+00 5.709150150345E+00 2.537960996485E-01 7.827214124103E-01 8.357010033325E-01 9.956863564499E-01 6.469451876811E-01 4.710624376836E-01 -6.095977237146E-01 -2.312449216797E+00 2.071365202646E-01 5.019757624424E+00
 -2.088033092039E-01 5.131008397166E-01 -9.244490603640E-01 9.286149239794E-01 -1.066539209405E+00 -5.402037224648E-01 -5.474225873952E-02 -2.436365475795E+00 1.699423155881E+00 -3.848427247881E-01 5.448916007214E-01 7.192320169464E-01 4.686089355843E-01 -1.438189805746E+00 -4.763263100247E-01 -1.037757572532E+00 1.241057667097E+00 8.478801865863E-01 1.169742474866E-01 -1.013234496449E+00 -1.283480518919E-01 -1.291481608452E+00 1.375685943249E+00 -1.091670123257E+00 9.160834912687E-01 -2.113439754030E+00 5.117561580306E+00 3.781793510554E+00 -3.461861069226E-01 1.100761155964E-01 2.959012242989E+00 -5.785857271222E-01 -1.998288370287E+00 -4.597218264019E-01 3.146838833987E-01 -1.385202775277E+00 -1.534283021834E-01 1.408141270264E+00 1.339581705332E+00 -2.728915922873E+00 -1.488499804008E+01 -2.994678168908E+00 -1.099276094924E-01 2.021749397189E+01
 -3.140454937765E-01 -6.868693420448E-01 2.596775218853E-01 -2.149381639658E+00 3.968091373883E-01 2.010306687633E-01 1.160417105280E+00 1.539202470059E-01 3.171385883128E+00 9.384714152053E-01 9.523096941533E-01 2.050400841451E+00 -2.804672073743E+00 5.756123087760E-01 -1.774505639338E+00 3.192738314543E-01 -4.999685523813E-01 -2.705668476582E-01 1.210784932857E+00 1.333914686152E+00 -4.044288205196E-01 -1.851525949713E+00 4.820566453050E-01 7.133793476924E-01 2.125466381374E-01 4.299887810802E+00 -1.252577465800E+01 1.254943774121E+00 1.839630992322E+00 -2.308235722488E+00 6.205200010942E+00 -3.242060902373E+00 -7.841831287170E+00 8.218033993869E-01 -1.523747146221E+00 4.390049015655E-01 -9.047011407187E-01 3.898382116104E-01 5.552929935439E-02 1.423143819028E+00 -8.407703897123E-01 -4.009172001793E+00 -5.283798224961E+00 -3.308745147219E-01 2.206054886062E+01
 -8.645965574741E+00 -5.009715070298E+00 -6.595049490956E+00 -4.482333906102E-01 2.282945510801E+00 1.671922154196E-01 -4.900327899464E-01 -9.242354487492E-02 1.449620859208E+00 -1.997941772666E-01 2.044457756198E+00 9.591844220019E-02 -4.010534719629E-01 -1.073823238318E+00 7.671250011385E-01 5.138943950925E-01 1.747618737637E+00 3.765009577298E-01 1.331691109984E+00 1.425221148456E+00 -1.270381203261E-01 -3.048899525428E-01 -1.118557373736E+00 1.483833971086E+00 -4.373126184612E-01 -1.030552213081E+00 2.086187833535E-01 -4.058602658637E+00 3.114166387321E+00 3.154290514247E+00 -9.737511480712E-01 9.858415961072E-01 -1.101163646267E+00 2.068172225218E+00 -7.046627625202E-01 -8.578892999212E-01 -1.327077400678E+00 8.964781459056E-01 2.766512867401E-01 -3.848246252321E-01 1.140278762071E-01 -5.581073037743E-01 -1.630637877794E-01 6.055992643178E-01 -3.517328235555E-01 1.224121051362E+01
 -3.213755659197E+00 -2.804226207673E+00 -2.993951584876E+00 9.324397902453E-01 -3.128797920072E+00 -2.137929710180E-01 -5.512831826978E-02 2.602248269470E-01 -7.974860136750E-01 -8.467332506626E-01 4.975770408350E-01 -4.439920235681E-01 1.024995935790E+00 -1.551054519213E+00 2.974016883018E+00 5.092085246159E-01 -3.273541742232E+00 -1.527226140876E+00 2.905345138853E-02 -1.552337566694E-01 6.667099741139E-02 -8.518104005473E-01 -1.572721362633E-01 -2.855922319722E+00 1.281925950835E+00 8.930679193517E-01 8.014244921142E-01 2.837095251929E-01 -2.530088869757E+00 -6.017179984520E+00 -4.144281379015E-01 -5.047818819452E-02 2.286364348373E+00 -5.811506801158E-02 -4.436010413944E-01 8.878828264967E-02 -3.359479527864E-01 1.830737207993E-01 1.368675170626E-01 -2.135649350118E-01 3.663307112294E-01 8.326200927306E-01 8.874836080597E-01 -1.514930539867E+00 -1.852155920838E+00 6.538460657878E-01 8.035270374790E+00
 -5.297595166888E+00 -4.227168900962E+00 -4.712123510202E+00 1.588450793828E+00 -2.957511789118E+00 -1.646046235736E+00 1.912450062691E-01 -3.062743837711E-01 8.508339917473E-02 -7.659192866721E-01 1.279634735531E+00 -7.374948646998E-02 3.618527438406E-01 -3.370172403751E-01 1.917719788531E+00 6.622813295211E-01 -3.497089523709E+00 -1.871622730228E+00 -1.085623655022E+00 4.221931624837E-01 3.386294975181E-01 -2.351668483763E-01 -7.582543701591E-01 -3.255890802903E+00 7.968702464810E-01 1.226918463791E+00 4.321428674592E-01 2.886561601006E-01 -2.450260082049E+00 -3.064515893363E+00 1.705220304455E-01 -8.017590827033E-01 1.639322925075E+00 5.322097142524E-01 -1.035784721139E+00 1.555899465520E-01 -8.324262291271E-01 1.061859948006E+00 1.751050528556E-01 -5.172154464869E-01 -1.111208737571E+00 -1.227448131652E-01 4.489396419108E-01 8.033590321788E-01 -6.964239574221E-01 3.279937161895E+00 8.052423988914E+00 9.747424324692E+00
 5.692976493743E-01 -8.587427265168E-01 5.073420970902E-01 -4.323653504266E-01 1.010331774754E+00 2.180542768934E+00 8.202775061209E-01 1.431979844357E+00 8.434474798466E-01 -1.580042732260E+00 3.095346255864E-03 2.038411312236E+00 -9.728286544389E-02 4.229477616197E-01 -2.204168584672E+00 -1.249613785363E-03 -1.476780674194E+00 -1.928471301438E-01 1.265838099002E-01 6.357790533295E-01 -1.474790054817E+00 6.286114563772E-01 1.051062793326E+00 1.529312957094E+00 -2.935651842677E-01 3.982132195023E-01 8.100408585828E-01 -1.859973190264E+01 2.114181648287E+00 1.444044192622E+00 1.974542890466E+00 -2.148950693455E-01 -4.895583011702E-01 -1.083816314740E+00 -2.549586505793E-01 5.160452174236E-01 -1.853810185111E+00 4.683743477350E+00 2.962136987106E-01 8.824449366386E-01 1.020438502824E+00 -3.298133321070E-01 -8.085541415977E-01 -1.402220346352E+00 -5.230918186216E-01 1.954932687785E+00 -1.639542994057E+00 -9.976885292490E-01 1.586896468758E+01
 7.747071266205E-01 -4.631780561863E-02 -7.792360249344E-01 1.529775779566E+00 -4.314150710014E-01 -3.546587594954E-01 -1.848408305513E+00 9.945619999398E-01 -1.468784163089E+00 1.174218990108E+00 2.070140592140E-01 1.575149683275E+00 2.941887123453E+00 -2.586738998089E+00 -1.864848624330E-01 1.295759847552E-02 -1.400048508873E+01 -9.246812893332E+00 -2.676979569835E+00 -5.165420339103E-01 -4.426323180029E-02 5.253427993045E-02 1.152144004931E+00 6.158094451075E-01 4.504738488091E-02 -2.878744439165E-01 5.575117607025E-01 4.443041873503E+00 8.351053345631E-01 1.991312253525E+00 -1.812170214893E+00 -2.242000232802E-02 -5.379482661388E-02 1.101074898155E+00 2.090673841989E+00 -6.970067071326E-01 3.437664135414E+00 -1.546566314251E+01 -1.813028336065E+00 -3.285200867581E-01 -1.108724019947E+00 2.485335993110E-01 1.770482841160E-01 2.622168681011E-01 -1.282581227509E+00 -2.406016822656E+00 2.517582393358E+00 2.341366593110E+00 -6.555465406466E+00 2.900801665289E+01
 -1.799238457966E+00 1.524740059387E-01 -1.534864819309E-01 -1.120439185413E+00 1.990564680120E-01 1.298917234026E+00 -6.771333144214E-01 9.880032340659E-03 4.972575930453E-01 1.284287772425E+00 -1.249638506743E+00 -3.123236575694E+00 -1.807775436940E+00 -1.689453890282E-01 1.363763152387E+00 -2.023918000214E-01 -5.124426319193E+00 -7.121222161482E+00 1.711287181412E+00 1.292245991474E+00 5.723981628231E-01 -1.311258814637E+00 -1.497050101709E+00 5.789376883500E-01 8.301649643238E-01 7.635568094415E-02 9.422870292167E-01 9.855756108304E-01 -2.847326091302E-01 -3.763260988838E+00 2.557051653713E-01 -6.788191468875E-03 1.849026763770E-01 1.584078241044E+00 -1.656624988071E+00 2.297415856501E+00 5.665617864229E-01 -1.329336425104E+00 -1.781557492539E+00 6.966329163433E-01 3.519122997048E-01 -2.583054229881E-01 -3.558379359035E-01 -3.156076698656E-01 -8.418236099559E-01 -3.675763344758E-01 1.261537792013E+00 1.434409183269E+00 -4.062580053732E+00 4.097350949863E+00 2.193831119166E+01
 -3.847539303998E-01 -1.082213119659E-01 -6.227621528214E-01 -4.413758968805E-01 1.607707844564E+00 1.628523662821E+00 6.523049093372E-01 2.008579468111E+00 5.734571237024E-01 -4.611619536042E-01 -7.945726474578E-01 -5.463028829616E-01 9.891948483723E-01 -4.915975377399E-03 5.307937329468E-02 -5.272559680349E-01 -2.971543092105E-01 -9.992202492313E-01 -3.346001322395E-01 3.867567154204E-01 1.245904031095E+00 -1.142837320582E-01 -4.202828256480E-02 1.740578043872E-01 5.820986880832E-01 -8.238951178976E-01 -1.153411367537E+00 -6.051208077790E-01 2.773909045569E+00 -1.442576919609E+00 -2.632666567548E-01 3.836979260332E-02 1.085156392891E-01 -9.407798029137E-02 -7.824818270581E-01 7.295522520034E-02 -6.117301447328E+00 -2.380166307633E+00 -3.524309624042E+00 -4.622238419029E-01 1.273810335380E+00 8.229474501791E-01 -2.533615665048E-01 -1.129139328152E+00 -4.697885389314E-01 6.098993318822E-01 -7.064275771587E-02 -2.171290383425E-01 1.322901419525E+00 -1.650905200546E+00 9.954433492300E-01 4.902118086451E+00
 1.349651242880E-01 3.832451628151E-01 8.568270263640E-02 2.251341482201E+00 -5.055456304683E+00 -1.430231046653E+00 -8.057515182365E-01 -2.127696812470E-01 4.303658082427E-02 1.029894491395E+00 -6.704738790038E-01 1.976346054447E-01 2.412999217965E+00 -3.898010625655E+00 8.089029063137E-01 -1.728514035821E-02 1.490659039130E+00 1.259935698437E+00 -5.000596929650E-01 1.497362233452E+00 -8.048921004945E-01 7.225686659281E-02 1.276709743259E+00 1.755995224742E+00 -4.734484100119E-01 -2.360833218609E+00 1.494079152288E+00 2.197722461625E+00 -1.197323311244E+01 5.450965688413E+00 -9.015019547877E-01 1.620253892765E+00 1.553312259074E+00 -9.853040830362E-01 1.313581008348E+00 -1.427412325632E-02 -1.509858247933E+00 -2.671413881387E+00 7.894820233035E-01 3.743746857416E-02 -9.487855108405E-02 -9.068322545743E-02 8.922052805466E-01 3.587208130855E-01 -1.326014875111E+00 -1.344581405083E+00 1.889844456547E+00 1.859651316146E+00 -1.821026158480E+00 -3.180250973265E-01 -2.444637746772E+00 -1.353207841613E+00 1.658862993585E+01
 -7.591798675751E-01 1.094648058795E+00 -1.298063862360E+00 1.079048328136E+00 1.482863259146E+00 -2.311088190049E-02 2.108603615230E-01 9.049175141899E-01 -6.096702262749E-01 2.015494040285E-01 3.115502931179E-02 -1.190268128902E+00 4.145038830558E-02 -1.673069418695E+00 1.951930332600E+00 -1.958729293534E-01 1.456877533793E-01 7.017849367904E-01 -3.756281919110E-01 8.487408236926E-01 7.067795850019E-01 8.677568198431E-01 -3.480100340525E-01 1.355624544517E+00 2.233804876571E-02 7.913541635007E-01 -1.336252358364E+00 -1.946823622975E-01 9.551240754183E+00 -7.674317987983E+00 7.894236702476E-01 -4.300486401337E-01 -1.790924375418E+00 6.138063542983E-01 -9.579833385899E-01 -5.123235253379E-01 -4.791178877283E+00 -1.527905668454E+00 -3.174256463313E+00 -2.658598257285E-01 6.358523298992E-01 8.222309311782E-01 -9.440745491291E-01 -7.562807909859E-01 2.145518725221E-01 1.618155447442E-01 9.763933388662E-01 4.792030253425E-01 5.294497873378E-01 -2.118768474878E+00 1.214632293507E+00 4.129754034164E+00 -8.515571067556E+00 1.094089808956E+01