 Job started on host DESKTOP-5CQNRD0
 at Wed Oct  2 11:24:51 2019

 +-------------------------------------------------+
 |                                                 |
 |      CCC   AA    SSS  TTTTT  EEEEE  PPPP        |
 |     C     A  A  S       T    E      P   P       |
 |     C     AAAA   SS     T    EEE    PPPP        |
 |     C     A  A     S    T    E      P           |
 |      CCC  A  A  SSS     T    EEEEE  P           |
 |                                                 |
 +-------------------------------------------------+
 |                                                 |
 | Materials Studio CASTEP version 2017            |
 | Ab Initio Total Energy Program                  |
 |                                                 |
 | Authors:                                        |
 | M. Segall, M. Probert, C. Pickard, P. Hasnip,   |
 | S. Clark, K. Refson, J. R. Yates, M. Payne      |
 |                                                 |
 | Contributors:                                   |
 | P. Lindan, P. Haynes, J. White, V. Milman,      |
 | N. Govind, M. Gibson, P. Tulip, V. Cocula,      |
 | B. Montanari, D. Quigley, M. Glover,            |
 | L. Bernasconi, A. Perlov, M. Plummer,           |
 | E. McNellis, J. Meyer, J. Gale, D. Jochym       |
 | J. Aarons, B. Walker, R. Gillen, D. Jones       |
 | T. Green, I. J. Bush, C. J. Armstrong,          |
 | E. J. Higgins, E. L. Brown, M. S. McFly         |
 |                                                 |
 | Copyright (c) 2000 - 2016                       |
 |                                                 |
 | Please cite                                     |
 |                                                 |
 |     "First principles methods using CASTEP"     |
 |                                                 |
 |         Zeitschrift fuer Kristallographie       |
 |           220(5-6) pp. 567-570 (2005)           |
 |                                                 |
 | S. J. Clark, M. D. Segall, C. J. Pickard,       |
 | P. J. Hasnip, M. J. Probert, K. Refson,         |
 | M. C. Payne                                     |
 |                                                 |
 |       in all publications arising from          |
 |              your use of CASTEP                 |
 |                                                 |
 +-------------------------------------------------+
 
 
 This version was compiled for x86_64-windows-msvc2008 on May 05 2016
 Intel(R) Math Kernel Library Version 11.1.2 
 Fundamental constants values: CODATA 2010
 
License checkout of MS_castep successful
 
 
 Atomic calculation performed for O: 1s2 2s2 2p4
 
 Converged in 61 iterations to an ae energy of -2040.902 eV
 
 Identity difference: 4.10E-04
 
   ============================================================                
   | Pseudopotential Report - Date of generation  2-10-2019   |                
   ------------------------------------------------------------                
   | Element: O Ionic charge:  6.00 Level of theory: PBE      |                
   | Atomic Solver: Koelling-Harmon                           |                
   |                                                          |                
   |               Reference Electronic Structure             |                
   |         Orbital         Occupation         Energy        |                
   |            2s              2.000           -0.881        |                
   |            2p              4.000           -0.332        |                
   |                                                          |                
   |                 Pseudopotential Definition               |                
   |        Beta     l      e      Rc     scheme   norm       |                
   |          1      0   -0.881   1.100     qc      0         |                
   |          2      0    0.250   1.100     qc      0         |                
   |          3      1   -0.332   1.100     qc      0         |                
   |          4      1    0.250   1.100     qc      0         |                
   |         loc     2    0.000   1.100     pn      0         |                
   |                                                          |                
   | Augmentation charge Rinner = 0.769                       |                
   | Partial core correction Rc = 0.769                       |                
   ------------------------------------------------------------                
   | "2|1.1|14|18|21|20UU:21UU(qc=7)[]"                       |                
   ------------------------------------------------------------                
   |      Author: Chris J. Pickard, Cambridge University      |                
   ============================================================                
 
 Doing a self consistent calculation for the test configuration
 
 Atomic calculation performed for O: 1s2 2s2 2p4
 
 Converged in 61 iterations to an ae energy of -2040.902 eV
 
 ---------------------------------------
 AE eigenvalue nl 10 =      -18.91475256
 AE eigenvalue nl 20 =       -0.88057101
 AE eigenvalue nl 21 =       -0.33186952
 ---------------------------------------
 PS eigenvalue nl 20 =       -0.88059206
 PS eigenvalue nl 21 =       -0.33182157
 ---------------------------------------
 Maximum eigenvalue error:   4.80E-05
 
 Derived cutoff energies: C=  14 M=  17 F=  20 E=  22
 
 
 ***************************************
 
 Pseudo atomic calculation performed for O 2s2 2p4
 
 Converged in 24 iterations to a total energy of -432.6196 eV
 
 Calculation not parallelised.

 ************************************ Title ************************************
 CASTEP calculation from Materials Studio

 ***************************** General Parameters ******************************
  
 output verbosity                               : normal  (1)
 write checkpoint data to                       : O.check
 type of calculation                            : single point energy
 stress calculation                             : off
 density difference calculation                 : off
 electron localisation func (ELF) calculation   : off
 Hirshfeld analysis                             : off
 unlimited duration calculation
 timing information                             : on
 memory usage estimate                          : on
 write final potential to formatted file        : off
 write final density to formatted file          : off
 write BibTeX reference list                    : on
 write OTFG pseudopotential files               : on
 checkpoint writing                             : both castep_bin and check files
  
 output         length unit                     : A
 output           mass unit                     : amu
 output           time unit                     : ps
 output         charge unit                     : e
 output           spin unit                     : hbar/2
 output         energy unit                     : eV
 output          force unit                     : eV/A
 output       velocity unit                     : A/ps
 output       pressure unit                     : GPa
 output     inv_length unit                     : 1/A
 output      frequency unit                     : cm-1
 output force constant unit                     : eV/A**2
 output         volume unit                     : A**3
 output   IR intensity unit                     : (D/A)**2/amu
 output         dipole unit                     : D
 output         efield unit                     : eV/A/e
 output        entropy unit                     : J/mol/K
  
 wavefunctions paging                           : none
 random number generator seed                   : randomised (112503477)
 data distribution                              : optimal for this architecture
 optimization strategy                          : maximize speed(+++)

 *********************** Exchange-Correlation Parameters ***********************
  
 using functional                               : Perdew Wang (1991)
 relativistic treatment                         : Koelling-Harmon
 DFT+D: Semi-empirical dispersion correction    : off

 ************************* Pseudopotential Parameters **************************
  
 pseudopotential representation                 : reciprocal space
 <beta|phi> representation                      : reciprocal space
 spin-orbit coupling                            : off

 **************************** Basis Set Parameters *****************************
  
 plane wave basis set cut-off                   :   571.4000   eV
 size of standard grid                          :     1.7500
 size of   fine   grid                          :     2.1000
 size of   fine   gmax                          :    25.7175   1/A
 largest prime factor in FFT                    :          5
 finite basis set correction                    : none

 **************************** Electronic Parameters ****************************
  
 number of  electrons                           :  6.000    
 net charge of system                           :  0.000    
 treating system as non-spin-polarized
 number of bands                                :          7

 ********************* Electronic Minimization Parameters **********************
  
 Method: Treating system as metallic with density mixing treatment of electrons,
         and number of  SD  steps               :          1
         and number of  CG  steps               :          4
  
 total energy / atom convergence tol.           : 0.1000E-05   eV
 eigen-energy convergence tolerance             : 0.1429E-06   eV
 max force / atom convergence tol.              : ignored
 convergence tolerance window                   :          3   cycles
 max. number of SCF cycles                      :        100
 number of fixed-spin iterations                :         10
 smearing scheme                                : Gaussian
 smearing width                                 : 0.1000       eV
 Fermi energy convergence tolerance             : 0.2721E-13   eV
 periodic dipole correction                     : NONE

 ************************** Density Mixing Parameters **************************
  
 density-mixing scheme                          : Pulay
 max. length of mixing history                  :         20
 charge density mixing amplitude                : 0.5000    
 cut-off energy for mixing                      :  571.4       eV
 charge density mixing g-vector                 :  1.500       1/A

 *******************************************************************************
  
 
                           -------------------------------
                                      Unit Cell
                           -------------------------------
        Real Lattice(A)                      Reciprocal Lattice(1/A)
  10.0000000   0.0000000   0.0000000        0.6283185   0.0000000   0.0000000
   0.0000000  10.0000000   0.0000000        0.0000000   0.6283185   0.0000000
   0.0000000   0.0000000  10.0000000        0.0000000   0.0000000   0.6283185
 
                       Lattice parameters(A)       Cell Angles
                    a =   10.000000          alpha =   90.000000
                    b =   10.000000          beta  =   90.000000
                    c =   10.000000          gamma =   90.000000
 
                       Current cell volume = 1000.000000       A**3
 
                           -------------------------------
                                     Cell Contents
                           -------------------------------
                         Total number of ions in cell =    1
                      Total number of species in cell =    1
                        Max number of any one species =    1
 
            xxxxxxxxxxxxxxxxxxxxxxxxxxxxxxxxxxxxxxxxxxxxxxxxxxxxxxxxxxxx
            x  Element    Atom        Fractional coordinates of atoms  x
            x            Number           u          v          w      x
            x----------------------------------------------------------x
            x  O            1         0.500000   0.500000   0.500000   x 
            xxxxxxxxxxxxxxxxxxxxxxxxxxxxxxxxxxxxxxxxxxxxxxxxxxxxxxxxxxxx
 
 
                         No user defined ionic velocities
 
                           -------------------------------
                                   Details of Species
                           -------------------------------
 
                               Mass of species in AMU
                                    O   15.9989996
 
                          Electric Quadrupole Moment (Barn)
                                    O   -0.0255800 Isotope 17
 
                          Files used for pseudopotentials:
                                    O 2|1.1|14|18|21|20UU:21UU(qc=7)[]
 
                           -------------------------------
                              k-Points For BZ Sampling
                           -------------------------------
                       MP grid size for SCF calculation is  1  1  1
                            with an offset of   0.000  0.000  0.000
                       Number of kpoints used =             1
 
                           -------------------------------
                               Symmetry and Constraints
                           -------------------------------
 
                      Maximum deviation from symmetry =  0.00000         ANG
 
         There are no symmetry operations specified or generated for this cell
         There are no ionic constraints specified or generated for this cell
                      Point group of crystal =     1: C1, 1, 1
                      Space group of crystal =   221: Pm-3m, -P 4 2 3
 
 
                         Centre of mass is NOT constrained
 
                         Number of cell constraints= 0
                         Cell constraints are:  1 2 3 4 5 6
 
                         External pressure/stress (GPa)
                          0.00000   0.00000   0.00000
                                    0.00000   0.00000
                                              0.00000
  
+---------------- MEMORY AND SCRATCH DISK ESTIMATES PER PROCESS --------------+
|                                                     Memory          Disk    |
| Baseline code, static data and system overhead        0.0 MB         0.0 MB |
| BLAS internal memory storage                          0.0 MB         0.0 MB |
| Model and support data                              340.3 MB         0.0 MB |
| Electronic energy minimisation requirements          81.7 MB         0.0 MB |
| Force calculation requirements                       97.5 MB         0.0 MB |
|                                               ----------------------------- |
| Approx. total storage required per process          437.8 MB         0.0 MB |
|                                                                             |
| Requirements will fluctuate during execution and may exceed these estimates |
+-----------------------------------------------------------------------------+
------------------------------------------------------------------------ <-- SCF
SCF loop      Energy           Fermi           Energy gain       Timer   <-- SCF
                               energy          per atom          (sec)   <-- SCF
------------------------------------------------------------------------ <-- SCF
Initial  -3.90233449E+002  0.00000000E+000                         7.08  <-- SCF
      1  -3.76133426E+002  5.85873526E+000  -1.41000230E+001       8.31  <-- SCF
      2  -4.31777350E+002 -7.31895568E-001   5.56439241E+001       9.12  <-- SCF
      3  -4.33242659E+002 -9.00415231E+000   1.46530858E+000       9.75  <-- SCF
      4  -4.33296894E+002 -9.04139451E+000   5.42351098E-002      11.12  <-- SCF
      5  -4.32956230E+002 -9.01941601E+000  -3.40664376E-001      12.55  <-- SCF
      6  -4.33096960E+002 -9.02853662E+000   1.40730174E-001      14.28  <-- SCF
      7  -4.33059233E+002 -9.00959368E+000  -3.77266160E-002      16.53  <-- SCF
      8  -4.33085707E+002 -8.99769490E+000   2.64735290E-002      18.64  <-- SCF
      9  -4.33145454E+002 -8.98364764E+000   5.97469217E-002      20.61  <-- SCF
     10  -4.33288794E+002 -8.99236113E+000   1.43340533E-001      22.70  <-- SCF
     11  -4.33272760E+002 -9.00551623E+000  -1.60343393E-002      24.58  <-- SCF
     12  -4.33288095E+002 -9.00544430E+000   1.53352101E-002      26.22  <-- SCF
     13  -4.33285656E+002 -9.00468792E+000  -2.43891968E-003      27.98  <-- SCF
     14  -4.33283872E+002 -8.97807276E+000  -1.78463993E-003      29.61  <-- SCF
     15  -4.33287348E+002 -8.97927690E+000   3.47658278E-003      31.11  <-- SCF
     16  -4.33288658E+002 -8.98096660E+000   1.31001228E-003      32.84  <-- SCF
     17  -4.33289367E+002 -8.98233906E+000   7.08790665E-004      34.36  <-- SCF
     18  -4.33287096E+002 -8.98325697E+000  -2.27122487E-003      35.92  <-- SCF
     19  -4.33288991E+002 -8.98403692E+000   1.89500380E-003      37.44  <-- SCF
     20  -4.33288871E+002 -8.98283240E+000  -1.19607872E-004      39.00  <-- SCF
     21  -4.33288276E+002 -8.98292259E+000  -5.95309386E-004      40.66  <-- SCF
     22  -4.33288343E+002 -8.98290918E+000   6.67081166E-005      42.16  <-- SCF
     23  -4.33288378E+002 -8.98294154E+000   3.54686417E-005      43.80  <-- SCF
     24  -4.33288426E+002 -8.98228047E+000   4.78621966E-005      45.53  <-- SCF
     25  -4.33288377E+002 -8.98061846E+000  -4.93386871E-005      47.19  <-- SCF
     26  -4.33288391E+002 -8.97850132E+000   1.43570102E-005      48.83  <-- SCF
     27  -4.33288106E+002 -8.98566368E+000  -2.85291227E-004      50.45  <-- SCF
     28  -4.33290030E+002 -8.98694188E+000   1.92389357E-003      52.08  <-- SCF
     29  -4.33289571E+002 -8.98701877E+000  -4.58094036E-004      53.69  <-- SCF
     30  -4.33288984E+002 -8.98583312E+000  -5.87015482E-004      55.23  <-- SCF
     31  -4.33287406E+002 -8.98736703E+000  -1.57890119E-003      56.89  <-- SCF
     32  -4.33289079E+002 -8.98893690E+000   1.67356584E-003      58.39  <-- SCF
     33  -4.33290166E+002 -8.98842497E+000   1.08733839E-003      59.98  <-- SCF
     34  -4.33289905E+002 -8.98739286E+000  -2.61331320E-004      61.70  <-- SCF
     35  -4.33289660E+002 -8.98802878E+000  -2.44770084E-004      63.42  <-- SCF
     36  -4.33289222E+002 -8.98645304E+000  -4.38608700E-004      65.50  <-- SCF
     37  -4.33289140E+002 -8.98652612E+000  -8.18548601E-005      67.17  <-- SCF
     38  -4.33288936E+002 -8.98473493E+000  -2.03586519E-004      69.00  <-- SCF
     39  -4.33288134E+002 -8.98439209E+000  -8.02704351E-004      70.47  <-- SCF
     40  -4.33288050E+002 -8.98418618E+000  -8.33877707E-005      72.16  <-- SCF
     41  -4.33287965E+002 -8.98409922E+000  -8.53744020E-005      73.98  <-- SCF
     42  -4.33287645E+002 -8.98258740E+000  -3.20281168E-004      76.39  <-- SCF
     43  -4.33286829E+002 -8.98409081E+000  -8.15149524E-004      78.47  <-- SCF
     44  -4.33286723E+002 -8.98406691E+000  -1.06339453E-004      80.34  <-- SCF
     45  -4.33287032E+002 -8.98447465E+000   3.09295599E-004      82.38  <-- SCF
     46  -4.33287311E+002 -8.98477060E+000   2.78746761E-004      84.48  <-- SCF
     47  -4.33287308E+002 -8.98488131E+000  -2.88030894E-006      86.58  <-- SCF
     48  -4.33287257E+002 -8.98506001E+000  -5.10977793E-005      88.64  <-- SCF
     49  -4.33287136E+002 -8.98549555E+000  -1.21007431E-004      90.52  <-- SCF
     50  -4.33287009E+002 -8.98538075E+000  -1.27098656E-004      92.42  <-- SCF
     51  -4.33286941E+002 -8.98559172E+000  -6.82186845E-005      94.62  <-- SCF
     52  -4.33286831E+002 -8.98532249E+000  -1.09724902E-004      96.42  <-- SCF
     53  -4.33286923E+002 -8.98555084E+000   9.23026076E-005      98.28  <-- SCF
     54  -4.33286950E+002 -8.98568962E+000   2.67501114E-005     100.27  <-- SCF
     55  -4.33286882E+002 -8.98593046E+000  -6.85691557E-005     102.14  <-- SCF
     56  -4.33286728E+002 -8.98619615E+000  -1.53393631E-004     104.08  <-- SCF
     57  -4.33286723E+002 -8.98639192E+000  -5.06867046E-006     106.00  <-- SCF
     58  -4.33286706E+002 -8.98642172E+000  -1.70661271E-005     107.83  <-- SCF
     59  -4.33286720E+002 -8.98641855E+000   1.36556403E-005     109.78  <-- SCF
     60  -4.33286725E+002 -8.98691798E+000   5.27764478E-006     111.64  <-- SCF
     61  -4.33286723E+002 -8.98662536E+000  -1.56728107E-006     113.52  <-- SCF
     62  -4.33286749E+002 -8.98686787E+000   2.60816844E-005     115.25  <-- SCF
     63  -4.33286760E+002 -8.98683026E+000   1.08966236E-005     117.08  <-- SCF
     64  -4.33286766E+002 -8.98682511E+000   5.65866134E-006     119.00  <-- SCF
     65  -4.33286763E+002 -8.98695484E+000  -3.20863305E-006     120.84  <-- SCF
     66  -4.33286757E+002 -8.98702110E+000  -5.58239502E-006     122.62  <-- SCF
     67  -4.33286759E+002 -8.98703358E+000   1.30125212E-006     124.47  <-- SCF
     68  -4.33286758E+002 -8.98702132E+000  -7.74962524E-007     126.42  <-- SCF
     69  -4.33286758E+002 -8.98704578E+000   1.04893506E-007     128.06  <-- SCF
------------------------------------------------------------------------ <-- SCF
 
Final energy, E             =  -433.1324955705     eV
Final free energy (E-TS)    =  -433.2867578781     eV
(energies not corrected for finite basis set)
 
NB est. 0K energy (E-0.5TS)      =  -433.2096267243     eV
 

Writing analysis data to O.castep_bin

Writing model to O.check
 
 *********************** Forces ***********************
 *                                                    *
 *            Cartesian components (eV/A)             *
 * -------------------------------------------------- *
 *                   x            y            z      *
 *                                                    *
 * O         1      0.00000      0.00000      0.00000 *
 *                                                    *
 ******************************************************

Writing analysis data to O.castep_bin

Writing model to O.check
 
 A BibTeX formatted list of references used in this run has been written to 
 O.bib
 
Initialisation time =      4.58 s
Calculation time    =    126.78 s
Finalisation time   =      1.42 s
Total time          =    132.78 s
