#BIOSYM hessian 1
@Type: Hessian Update
@Units
 distance: 	A
 energy: 	Kcal/Mol
#header
@natom 13

#label
L1      L2      L3      L4      L5      L6      L7      L8      L9      L10     L11     L12     L13

#element
Li Li Li Li Li Li Li Li Li Li Li Li Li

#matrix
39
 8.709789755814E+00
 -2.949085475486E-02 1.558901905690E+01
 -1.179537721629E+00 -5.470022497396E+00 8.685378612315E+00
 4.043347316809E-01 -3.898341421185E+00 2.758218946136E+00 9.954157254656E+00
 -3.335113555443E+00 1.922469434798E-01 3.566657238256E-02 -6.014991747244E-02 4.538632252633E+00
 7.064810556831E-01 1.104283850879E+00 1.697603008685E+00 -1.611207239597E+00 -4.104010100166E-01 9.961187527382E+00
 -3.737709446307E+00 3.387519265709E+00 1.087728348766E+00 8.033840236972E-01 1.816059392337E+00 3.122940868820E+00 1.190120700225E+01
 -5.253977151764E-01 -5.236064851644E+00 -4.335315798319E-02 1.758546575308E+00 -4.689491823264E-01 -3.244382785131E+00 1.295556103635E+00 1.248428162901E+01
 -9.900674747007E-01 -2.848834080598E+00 2.585426551535E+00 3.321972454603E+00 -4.035431141313E-01 -2.064657596478E-01 7.427455216174E-02 -9.534462433188E-01 1.078756787671E+01
 6.767719707289E-01 -1.554759879730E+00 -5.315012024891E-01 2.727302464425E-01 -1.005832956760E+00 -3.043231746790E+00 -7.959435714586E-01 3.356621865485E+00 -1.698028657054E+00 7.614419207037E+00
 -6.230427717079E-01 -7.878080914338E-01 -1.163085587561E+00 5.989479497444E-02 2.498932981656E+00 2.712927223114E+00 1.350699423421E+00 -2.628369250742E+00 8.285244070368E-01 -7.118597261750E+00 1.290261088370E+01
 -1.509262201985E-01 1.816251005959E+00 1.804589189608E-01 -1.031085407076E+00 -2.770339049208E-01 3.061690710283E+00 -6.897554389348E-01 -2.294280798394E+00 -3.525319057010E-01 -4.140956832485E+00 3.018301982476E+00 5.749721795710E+00
 -2.208641627547E+00 4.451722774609E+00 -9.423958328375E-01 -7.016021709287E-01 1.399073746755E+00 -4.221895829668E+00 -2.580254932669E-02 -1.191245364841E-01 -2.107566806558E-01 4.254042051467E+00 -6.647406876478E+00 -2.081854309688E+00 1.356017131957E+01
 8.162119794292E-01 -3.749470668990E-01 -2.573990991208E+00 1.039000363988E+00 -1.294158052866E+00 -4.002646405070E+00 -1.831870062730E+00 1.559048759845E+00 -4.922746824402E-01 3.173002412048E+00 -2.625992726705E+00 -2.133860192103E+00 2.676129596012E+00 4.934057482095E+00
 -7.362247004256E-01 -1.318196192061E+00 -1.632676602351E+00 -8.857929622934E-01 -1.624188796885E+00 -3.811393383915E-02 -1.826094225934E+00 1.638526490299E+00 3.967713186117E+00 2.320536941584E+00 -2.714063159330E+00 -1.495804371856E+00 -1.536644758100E+00 1.746048775467E+00 1.390373657929E+01
 -4.866802746207E+00 9.881875100596E-01 3.846687880311E+00 1.509868785744E-01 -1.530990437004E-01 5.906448386034E-01 -7.930437996217E-02 4.079839638802E-01 2.203659858484E-01 -6.367778581605E-01 -3.010469397944E+00 1.946401437252E+00 1.137333652448E+00 -1.009952874911E+00 1.026843867231E+00 1.101542619993E+01
 3.619201971016E+00 -1.522620179125E+00 -1.441867252239E+00 -2.214027326408E+00 -1.263260101967E+00 -2.374981965361E-01 1.188637601779E+00 1.809536375800E+00 -5.345555084622E-01 1.440401284116E+00 -1.081444997446E+00 -1.236243514884E+00 -7.900121846845E-01 -1.701525674177E-01 2.176895251757E-01 -7.142376862941E+00 9.861175619362E+00
 3.988463172788E+00 -9.323702219119E-01 -2.671437620411E+00 2.155060654883E-01 -1.582137564717E+00 -9.343883389332E-01 -9.919894554422E-01 2.349618828715E+00 -2.934664796143E+00 2.736091954003E+00 -2.127835073949E+00 -2.715157855215E+00 6.548116156274E-01 1.759368082781E+00 -1.894568477538E+00 -3.959385205360E+00 3.056317905529E+00 7.324365936690E+00
 2.628159045874E+00 -3.096919189290E+00 1.361139311028E+00 3.798749554918E-04 -2.301386360198E+00 2.530436546661E-01 -3.166057721192E+00 5.204076086873E-01 3.916123643078E+00 1.210976885723E+00 1.272431107123E+00 -2.916356466255E+00 -3.298324247714E+00 2.143073330010E-01 3.080880777182E+00 1.683221370575E+00 -2.171304531926E+00 -1.300416479166E-01 2.733830113064E+01
 -1.730500649447E+00 2.510117853023E-01 1.530680395016E+00 -2.634587480565E-01 -9.365126109109E-01 1.354164857514E+00 3.003650525524E+00 -2.406112966746E+00 -1.523951359587E-02 -1.060979687611E+00 1.249207437968E+00 5.299680660158E-01 -2.404616634827E+00 -7.995615992919E-01 2.054830020840E-01 1.391442621514E+00 9.414809436111E-01 -1.978582805403E+00 4.623103589883E+00 7.843715300180E+00
 -1.420473683064E+00 3.176503284384E+00 -2.254777663176E+00 3.014528221246E+00 2.594103717496E+00 -3.500270878936E+00 1.080543954012E+00 2.444829918835E+00 -1.246889642544E+00 9.775413749600E-01 -1.321175204286E+00 -2.052277174825E+00 2.951552087790E+00 1.484286513377E+00 -1.008735298192E+00 -3.571385490710E-01 -5.091099612002E-01 1.618611887309E+00 7.847438152828E-02 -3.124425098038E-01 1.182989192007E+01
 -2.778510956756E+00 -3.305923661721E+00 1.510844188135E+00 4.489893249720E-01 5.849206456174E-01 -3.057697243524E+00 -3.185412105565E+00 5.243423397841E-01 -1.826963414976E+00 -1.189814626778E+00 -2.028567653355E+00 2.336902363359E+00 5.280111932629E-01 -3.957047112108E-01 -3.319312333858E+00 3.084164989749E+00 8.772410203429E-01 -1.242183144165E+00 -6.927981970168E+00 2.243052584070E+00 1.034474158592E+00 1.319128460030E+01
 -3.334690630389E-01 -3.569484137461E+00 -1.541264106019E+00 2.993606996368E+00 -1.091036052380E+00 1.136803625738E+00 -9.470872539704E-01 -1.359124153673E+00 6.649299374769E-01 1.344512265717E+00 -1.157839047317E+00 -1.155466077061E+00 -5.224816618568E+00 1.223844839138E+00 1.303374331610E+00 1.932285833003E-01 -1.727442795637E+00 8.941350188942E-01 4.530454774318E+00 -5.077532670973E-01 -8.504241553465E-01 1.407242150526E+00 2.346781030042E+01
 -1.305090762543E+00 -2.546830798808E+00 -2.638131951969E-02 -1.554147586667E+00 1.520721455106E+00 -3.616997597112E+00 -1.613777255246E-01 2.907632478723E+00 -2.494946396300E+00 3.135165186135E+00 -8.675260143878E-01 -4.479023499476E+00 1.878202624181E+00 2.112537926346E+00 1.384036242468E-01 -1.947019564732E+00 1.136800457979E+00 2.358938120766E+00 -2.201043696375E+00 -1.396645148935E+00 1.772935076506E+00 -2.866162163643E-01 -3.231598031159E+00 8.563543612906E+00
 1.201022409799E+00 3.709223733170E+00 -6.299196642111E-01 -4.011944027000E+00 2.866391726213E-01 -5.181710966866E-01 -8.218211575018E-01 -3.185235585453E+00 -3.500585180335E+00 1.429930860308E+00 -2.446179261693E+00 -1.551550758995E+00 4.452193142377E+00 -6.134574103618E-01 -7.937123491915E-02 -3.410900539519E+00 2.932910639146E+00 1.984276796192E+00 -8.915173134615E-01 5.001122476425E-03 1.486058797043E+00 -3.065719290536E+00 -7.632117228211E+00 2.895369794843E+00 1.733052420657E+01
 1.764557090716E+00 -8.167099414244E-02 1.513870482975E+00 -2.257604840693E+00 -9.746086309710E-01 3.138368104457E+00 -1.125066686518E+00 1.980400492360E+00 6.878541228179E-01 -4.741830170909E-02 -1.540389820089E+00 2.316894388690E+00 -7.731573092292E-01 -1.828505985168E+00 3.841167056373E+00 2.232936910937E-01 1.778977627894E+00 -2.245275272884E+00 -4.230734327761E-01 -1.944227366402E+00 -1.898065041619E+00 -2.929715291420E+00 -4.921264036733E+00 -2.283462311794E+00 2.002643872010E+00 1.022302630023E+01
 -4.617059547779E-01 7.371418780779E-01 -7.542794287175E-01 -5.749721532081E-01 -5.769231203690E-01 -1.596733918004E+00 -2.575908062624E-02 2.892114541922E-01 -4.981632235492E+00 -3.744351387655E-03 -5.300902314487E-01 -9.198153715845E-01 -3.326866588956E-01 4.950381099961E-01 -3.680519518578E+00 1.721460787700E+00 -8.407892997766E-01 3.070624118832E+00 1.005831523872E+00 2.666089629413E+00 8.655281959486E-01 3.033715530237E+00 -1.953902554000E-01 1.230276020235E+00 3.199008033429E+00 -4.818613274913E+00 9.040705494160E+00
 -4.316450283548E+00 -2.330053462023E+00 -2.988880032249E+00 -1.043990513942E+00 8.308392816744E-01 -9.327138576541E-01 -2.167555889921E-01 5.757050053590E-01 -1.754425402636E-01 8.177967917156E-01 2.795680662723E+00 1.064472922345E+00 -6.117459121811E-01 2.595969093757E+00 2.439590685407E+00 -1.063820027875E+00 -2.189712965448E+00 -2.470950635566E+00 -1.241491240034E+00 -6.030559400621E-01 -1.478874765604E+00 -1.228573710458E+00 3.172951809309E+00 2.799136906839E-01 -1.440657418427E-01 1.640612887982E+00 -2.295445481825E+00 1.447869227813E+01
 1.666133862278E-01 1.483641069549E+00 -1.784021099801E+00 2.057540462889E+00 8.744146166385E-01 -1.586757693062E+00 -4.619500807791E-01 -4.017301532790E-01 -1.417253000206E+00 9.106611557437E-01 -4.850673561442E-02 2.978877196965E-01 4.257305086162E+00 1.099060510968E+00 -2.700761729770E+00 -2.472090439771E-01 -1.803160782197E+00 1.415212612403E+00 -1.996360460562E+00 -8.282250011059E-01 1.178053823086E+00 4.543163501903E-01 -3.854632705735E+00 -9.714304506149E-01 1.046234522032E+00 -2.422024178210E+00 1.451723721566E+00 1.378689122943E+00 7.742878046473E+00
 -2.576485237581E+00 -4.587344016304E-01 -2.246786581922E-01 1.655304215385E+00 3.453660462510E+00 -1.284127757961E+00 7.143996716464E-01 -9.589582153205E-01 -2.282601114724E+00 -1.401982945329E+00 4.464703083894E+00 9.360749845229E-01 1.139292222396E+00 -6.141838438734E-01 -4.558358523628E+00 -1.151566863450E+00 -2.155935985179E+00 -1.432342937356E+00 -2.853368969739E+00 -4.447262935320E-01 1.580200714922E+00 4.398442355311E-01 -3.171841032235E+00 8.087496888605E-01 2.761136834922E+00 -7.493266741359E-01 6.714246758432E-01 4.809615931040E+00 3.739067505374E+00 8.398477061850E+00
 -4.907595971019E-01 -1.326407511827E+00 -7.715198157652E-02 -3.963130652928E+00 1.086679466861E+00 6.104145684884E+00 -6.908142338992E-01 -2.393283295567E+00 2.972250613383E+00 -5.656916890202E+00 6.226227880502E+00 2.385554042266E+00 -5.078545705581E+00 -3.950350918446E+00 -2.705809862999E+00 -1.129429949054E+00 1.480050354143E-01 2.634679734845E-01 1.484515708327E+00 -1.299505131596E+00 -1.311408431115E+00 -6.857626764781E-01 1.326364221009E+00 -1.017487078059E+00 -1.526384247184E+00 8.266649092227E-01 -1.911277527497E+00 6.361993943765E-01 -2.727580757962E+00 -8.706619077727E-01 1.452615321713E+01
 6.380001743991E-01 -1.363512075308E+00 1.837489906416E+00 -1.600463787298E+00 -1.998353063576E+00 -1.668055284142E-01 -3.953411941771E+00 -3.852415484327E+00 3.205589400834E+00 9.102632603817E-01 -3.740915961698E+00 -4.163606697465E-01 5.399668761685E-01 4.192209381377E-01 2.588928943614E+00 1.738796364411E+00 -1.108022506618E-01 -5.050626756965E-01 1.362815535492E+00 6.369170513295E-01 -2.689548386351E+00 2.063722090428E+00 1.968135472966E+00 3.955564797771E-01 -4.931997212767E-02 -7.271542235154E-01 -8.261093044121E-01 -2.291764464679E+00 -2.235456595296E+00 -4.201578781703E+00 1.365679012056E+00 7.030339522532E+00
 2.117079527153E+00 2.086402565731E+00 -1.314978098786E+00 9.174121600872E-01 -2.128385931543E+00 -5.710331644949E+00 4.835933997478E-01 6.204168285400E+00 -1.060090377646E+00 -5.522317671818E-01 6.517210903356E-01 -4.304546746228E-01 -3.307989941291E+00 1.658868539533E+00 -5.348351254786E+00 -7.002806920947E-01 4.427986308927E-01 1.106917489943E-01 2.237863900354E+00 -2.429124227954E+00 1.253461884694E+00 -7.825593797610E-01 3.686409770545E+00 3.915010488198E-01 -3.731644275290E+00 5.576447416525E-01 4.353594272287E-01 8.820030225475E-01 -4.035721736578E+00 -7.049748040451E-01 -1.003387398040E+00 -3.338798092438E+00 2.418051191287E+01
 3.325850525088E+00 3.552930168785E+00 -2.769763289019E+00 -2.326084517921E+00 1.712452606177E+00 2.146090269832E+00 -1.894718406486E+00 -3.404708473518E+00 -2.619652214969E+00 -6.335312717484E+00 6.943957376654E+00 3.935091756131E+00 -9.221737108038E+00 -2.785545987093E+00 1.479168946315E+00 -3.567753054501E+00 3.049641765363E+00 -1.876258159094E+00 -1.105139964130E+01 -1.586742480564E+00 1.715300310224E-01 3.220781008095E+00 6.157008355247E-01 -9.330112754129E-02 -6.389276029491E+00 1.722640463476E+00 -3.407782261020E+00 -5.456319055364E+00 -4.818657277057E+00 -1.712624376811E+00 2.774199866352E+00 1.765274339301E-01 1.854541918836E+00 3.064225549598E+01
 2.691889196475E-01 -4.360317042325E+00 5.905490047730E+00 2.708863934310E+00 -1.313481337060E+00 -1.068461183235E+00 -3.210101968775E+00 -2.780364274375E-01 3.616444626015E+00 -1.614397251312E-01 -3.787526030631E+00 -8.773864423822E-02 1.686935146061E+00 -1.102228593253E+00 -1.460761675582E+00 3.158405163210E+00 -1.709204265016E+00 -7.148770715601E-03 -1.572275267235E+00 -1.543733576594E+00 -1.180781282452E+00 2.944504584654E+00 -3.830044670455E+00 5.190256645805E-01 2.023453568657E+00 6.617900023082E-01 6.107708924377E-01 -3.737213535435E+00 -5.666515779823E-01 -1.241300743941E+00 1.087882483840E+00 3.814734324722E+00 -4.534125584346E-01 -4.723246294595E+00 1.138541824152E+01
 4.076361816189E+00 9.884174768175E-01 -1.943297591300E+00 -2.125623539797E+00 -3.544841278396E+00 3.235538304712E+00 -4.861691819500E+00 -6.045703485788E+00 -2.911340792222E+00 3.422306043954E+00 -3.894057004131E+00 8.185935554916E-01 4.979638200616E-02 3.059942395125E+00 4.723275127689E+00 3.377977243025E-01 -7.117803561892E-02 9.708963745227E-01 5.129072134505E-01 1.902814322534E+00 -3.265518203531E+00 -1.267027204179E-01 3.043148617817E+00 -1.907920263206E+00 -2.032148959210E+00 1.239761253117E+00 -1.400770533406E+00 9.729609938771E-01 9.154596919934E-01 -3.496215714348E+00 -2.979300202180E+00 4.765173079475E+00 -1.056809893625E+01 3.627240074471E+00 -2.798875526266E+00 2.108266706456E+01
 1.452946218483E+00 -5.476874718030E-01 -1.445468950364E+00 1.178954774079E-02 -8.610824784697E-01 4.615706414314E-01 1.909748134741E+00 1.188586144060E+00 5.165089138808E-01 -1.661902349338E+00 3.225371977530E+00 8.940629122790E-01 -2.785352037806E+00 7.226118651705E-02 7.422288608098E-01 -2.316344536001E+00 1.251394554229E+00 8.281906699605E-01 -7.768781882224E+00 -2.317391171304E+00 -6.226807577341E+00 -1.411455779636E+00 -1.446571472282E+00 3.774324619628E-01 -4.152042272518E+00 -6.243770521554E-01 5.335759399960E-02 -6.094763899814E-01 -1.960246585102E-02 -9.529028102394E-01 -1.993242337579E-01 -9.008105813902E-01 1.585599524933E+00 6.279513635074E+00 -4.749570092087E-01 -8.739030071447E-01 1.125068194522E+01
 -6.967589118678E-01 -2.194944168960E-01 3.194407287688E+00 -3.234070867252E-01 1.236132237651E+00 1.270405139762E+00 -5.126343178618E-01 -1.202464786837E+00 -2.338196351427E+00 -1.864344308001E-01 7.480413583476E-01 -3.783193614890E-01 9.480009345037E-01 -1.039685938582E+00 -1.723246570994E+00 3.461769326005E+00 -5.003082627199E+00 -9.624006304472E-02 -9.622007065179E-01 -1.956206130243E+00 -2.116230716119E+00 -2.439430447907E+00 -4.641169746036E+00 2.705218293188E+00 1.920202827733E+00 -2.043491875628E-01 1.537939800636E+00 -1.838647496101E+00 9.603934857904E-01 2.339154919771E+00 -3.703753935063E-01 1.592623446943E-01 -2.902571077142E+00 -4.549501370832E-01 2.629280952205E+00 4.399384933205E-01 1.454865840128E+00 8.533342454668E+00
 -2.067873816894E+00 3.665988130558E+00 -2.326360109043E+00 -4.100113174307E+00 2.943302513484E+00 -1.068589721679E+00 1.993186950808E+00 -2.293862770228E+00 1.130455406058E+00 -1.219963997921E+00 9.416544882374E-01 1.698524888313E+00 5.960569079135E+00 -2.499134227932E+00 -3.076000536572E+00 -1.574811646541E+00 2.173571234320E+00 -2.871568161519E+00 -4.345453624874E+00 -1.612439773353E+00 -5.592160818243E+00 2.286253977212E+00 -5.828176448593E-01 -2.739078116727E+00 -2.824590867813E-01 -1.300817574737E+00 -1.980166926465E+00 -1.062499327394E-01 3.498540635912E+00 1.588372384257E+00 1.510660752209E-01 -6.484743713544E-01 -1.234246231523E+00 -7.342815681528E-01 -2.353250845898E+00 -5.337808392712E+00 4.040130765833E+00 -1.932259794151E+00 2.180862633586E+01

