#BIOSYM hessian 1
@Type: Hessian Update
@Units
 distance: 	A
 energy: 	Kcal/Mol
#header
@natom 4

#label
L1      L2      L3      L4

#element
Li Li Li Li

#matrix
12
 1.898325300986E+03
 -1.339805163045E+02 2.188695938092E+03
 -1.217271475931E+02 -4.768980719636E+01 2.197543263947E+03
 -2.788413995766E+02 -1.101582369323E+02 -9.887295297255E+01 2.018293881923E+03
 1.518784812388E+02 5.858821603510E+01 5.405184199996E+01 1.268688470219E+02 2.175705914721E+03
 1.570367529709E+02 6.241457931380E+01 5.560463617765E+01 1.237941817948E+02 -7.256544710690E+01 2.172552750290E+03
 4.404601957179E+02 1.732928603926E+02 1.563441280496E+02 3.544941209522E+02 -1.982466449355E+02 -1.982705478543E+02 1.678256558952E+03
 -2.494637692352E+02 -9.728106426367E+01 -8.870433542121E+01 -2.042907670700E+02 1.097583624347E+02 1.154572495579E+02 3.219205754156E+02 2.059488636117E+03
 2.489102442029E+02 9.812344171777E+01 8.836128091599E+01 1.996086831863E+02 -1.124830833304E+02 -1.113893936362E+02 -3.172784562826E+02 1.821072971468E+02 2.061993181375E+03
 1.809020235937E+02 7.084589284417E+01 6.425597251608E+01 1.468995174223E+02 -8.050068332522E+01 -8.256038691144E+01 -2.323647549012E+02 1.318339608896E+02 -1.312404711066E+02 2.145409334606E+03
 2.315658043025E+02 9.084303085874E+01 8.234230061846E+01 1.875801569787E+02 -1.032063724719E+02 -1.053063817627E+02 -2.969667908724E+02 1.688801864343E+02 -1.677476555339E+02 -1.221791704088E+02 2.084329275899E+03
 -2.842198495824E+02 -1.128482138367E+02 -1.006630603202E+02 -2.245299120069E+02 1.309966884396E+02 1.240781278875E+02 3.592048760871E+02 -2.088602112854E+02 2.018810520662E+02 1.495448855021E+02 1.907117366792E+02 2.015550001091E+03

