#BIOSYM hessian 1
@Type: Hessian Update
@Units
 distance: 	A
 energy: 	Kcal/Mol
#header
@natom 19

#label
L1      L2      L3      L4      L5      L6      L7      L8      L9      L10     L11     L12     L13     L14     L15     L16     L17     L18     L19

#element
Li Li Li Li Li Li Li Li Li Li Li Li Li Li Li Li Li Li Li

#matrix
57
 3.680948628986E+01
 3.113679437438E+00 1.273891756664E+01
 -1.331791181819E+00 2.334482233305E+00 8.761501480815E+00
 -2.162085493788E+00 -2.395280196504E+00 -7.384293127801E-01 2.517614727432E+01
 -6.857439040726E-01 -7.384396062048E+00 -1.306981968832E+00 2.126272082912E+00 2.550899600136E+01
 -1.700999208423E+00 -1.866324512820E+00 -1.734284047496E+00 -6.688614915685E-01 -2.468785269855E+00 1.726795042008E+01
 4.379699454780E-01 4.025307951306E-01 9.542913542299E-01 -5.732689053532E+00 -5.036761734168E+00 5.562687955850E+00 2.569514505720E+01
 -9.447014012810E-01 -5.604247612579E-01 -1.814274466270E-01 -5.806468523456E+00 -3.967791848275E+00 4.871282200804E+00 1.123340649553E+00 1.856445684416E+01
 2.768078881382E-01 -9.863699706235E-02 -9.724087666514E-02 4.477881682253E+00 4.946025597234E+00 -4.640214152978E+00 -5.331457512039E+00 -4.331810735242E+00 2.515432082303E+01
 1.463559503415E-01 8.146947940277E-01 -7.048613278341E-01 3.594535626599E-01 -5.357028831693E-02 -3.799719099855E-01 -7.635415856031E-01 5.956227321198E-01 -1.106088825269E+00 2.434742975416E+01
 -4.504262904752E-01 -7.514886032294E-02 4.021394204221E-01 6.536240092832E-01 -1.638239822129E+00 -2.717071958830E-01 2.360848253614E+00 3.208786185930E-01 4.409403624212E-01 -2.027803834239E+00 2.685044739740E+01
 -1.042056644925E+00 -1.107516301307E-01 -6.473553119914E-01 -5.285314096537E-01 -7.567405900877E-01 -1.413482468201E+00 4.123025767226E-01 -5.463793469877E-01 7.184257327081E-01 1.292577641887E-01 -4.623964351149E+00 2.851489775892E+01
 1.189920523853E-01 9.002626192609E-01 -7.163424035926E-02 -4.364517524858E-01 -4.412523580704E-01 4.441221313522E-01 -2.566463760363E-01 7.800561995704E-01 -6.977538104198E-01 -2.196805226648E+00 -6.913943053464E-01 -2.112803789812E+00 2.032022564009E+01
 9.560968855850E-01 1.000915081893E+00 4.158493977957E-01 1.578786820414E-01 5.929101837600E-01 7.856978179141E-01 4.409158976098E-01 -9.174598488191E-01 8.672019954897E-01 -2.635032016072E+00 -2.324273224552E+00 -4.666702118371E+00 -4.862455647373E+00 2.406242957868E+01
 9.928016499618E-01 1.304918554168E-01 -4.433361187862E-01 1.187262836684E+00 1.168525284896E+00 4.187558858015E-01 -1.201725236298E+00 3.322969049061E-01 -4.081864643982E-01 -1.225745431214E+00 -1.703468103741E+00 -3.152567335319E+00 -2.888191052504E-01 1.064188918342E-02 1.921572573573E+01
 -2.224587470299E+01 -5.184589908585E+00 1.777504076743E+00 -1.620482037026E+00 3.177218019409E+00 1.260250305961E+00 6.346835832625E-01 7.680333902666E-02 7.275109018530E-01 9.727306478287E-01 7.461746544527E-01 -1.764414428168E+00 -9.747855459377E+00 5.263813138576E+00 4.069638602927E+00 4.897920798634E+01
 -3.502079932200E+00 3.432574548947E-01 5.538538839754E-01 4.044701998515E+00 -3.238893773248E+00 -2.958781777630E+00 -1.359638177353E+00 1.305777470006E+00 3.307108055888E-01 2.400071911957E+00 -5.828143611416E-01 9.773036703119E-01 4.328591657392E+00 -3.217072962109E+00 -1.867663987247E+00 9.836834494246E+00 5.116371394616E+01
 1.157271156702E+00 -2.210935803716E-01 1.843110151156E+00 6.985259978156E-01 -1.307660134369E+00 -5.635085544426E-01 -1.039604679556E-01 -2.445360617643E-01 1.344492618628E-01 2.804284306165E+00 -1.769998261526E+00 3.647425908472E-01 3.794865742877E+00 -1.175841840167E+00 -1.485389465374E+00 -1.499557695137E+00 1.997275781275E+00 4.048884572814E+01
 -1.413562910757E+00 -8.446393716132E-04 -5.474824090669E-02 -1.715882209540E+00 -7.230192623352E-02 -1.311532801835E+00 -2.212280122517E-01 2.183638645070E-01 -9.092483695632E-01 2.659098278705E-01 4.475948019665E-02 9.205273716437E-01 -7.871806727402E-01 1.176371340491E+00 -7.516342912587E-01 9.615448257498E-01 7.918951130362E-01 4.797012631947E+00 2.025317358417E+01
 -1.078137256514E+00 -6.773960077838E-01 -7.969044318882E-01 1.909519213728E+00 -4.860472094684E+00 5.083608598607E+00 -9.320396554213E-01 6.933126658823E-02 2.187831513580E-01 -2.527309853468E-01 -6.421507159838E-02 -3.249384439639E-01 5.153529241894E-01 5.119644289081E-01 2.720391545329E-01 -9.267309934557E-02 6.558962126533E-01 -1.187163547677E-01 -2.061159065022E+00 1.156283115201E+01
 7.786087412931E-01 -3.132341115011E-01 -2.667678648104E+00 -2.029406968372E-01 5.022927506400E+00 -6.293034277590E+00 -5.489261441593E-01 -5.129449036347E-01 1.196420393809E+00 -1.450601979581E+00 2.233296850371E+00 7.754569431246E-01 -3.616058709494E-01 -8.811886064419E-01 5.081681626605E-01 1.325307581621E+00 -2.056317206056E+00 -1.335377032206E+01 -1.109262755097E+01 -6.696121940346E+00 3.076031375494E+01
 1.307296659573E+00 -4.207815480534E-01 -4.551478149232E-01 -3.027875811954E+00 -4.271429496219E-01 -1.503783379325E+00 -7.662946513621E-01 1.249106786029E-01 -1.519773582658E-01 -1.631786776560E-01 4.399223460875E-01 1.523818582489E-01 4.974523582897E-01 2.745844282082E-01 -7.424091417081E-01 -9.275108568913E-01 -8.078365819628E-01 5.631213927206E-01 -6.108281910473E-01 5.381897508571E-01 5.686206165974E-01 1.045859971453E+01
 -3.610900150032E+00 -5.827739293907E-01 -9.960342792877E-01 -1.283177399497E+00 -3.543048855473E+00 -1.708592478094E+00 -1.107633407058E+00 1.780931281295E-01 1.847599930464E+00 1.107936738806E+00 -2.453416602180E+00 2.306079216207E+00 -9.496425160677E-01 -2.647456361284E-01 -6.198728545168E-01 7.299182133023E-01 1.098834891037E+00 -5.496592995771E-01 7.718587949727E-01 2.366891785318E+00 1.555261925284E+00 -9.267193164659E+00 2.935386150376E+01
 -9.231234612742E-01 3.229075817078E-03 9.736827396569E-02 -1.773087919362E+00 -2.102260520002E+00 -2.111313719843E+00 -1.346172848024E+00 3.301721083011E-01 -5.524725875719E+00 2.396076477436E-01 -9.757188725273E-01 9.827842192289E-01 -3.760781993335E-01 -7.022652683193E-01 3.184557583568E-01 4.601837682288E-01 6.180815098819E-01 -8.630027417285E-01 7.152975180156E-01 2.541683258079E-01 -4.182452639054E-01 -1.080229337972E+00 1.287934252981E+01 1.900042264070E+01
 -3.682773611695E-01 9.439943248745E-02 2.396747546430E-01 3.394685662399E-01 -8.375203423478E-01 -1.454978468240E-01 -1.162178710862E+01 -2.015694137829E-01 -2.799889052518E+00 -2.475771321922E+00 1.080742076468E+00 -9.196963191859E-01 1.164785915184E+00 9.488968545991E-03 1.349708927371E+00 -6.842236024885E-01 9.008818473984E-01 -1.191369678098E+00 4.495953946848E-01 3.956532119567E-02 1.156433209440E-01 -1.869539907566E+00 5.646059023518E-01 1.723115580725E+00 2.750321381659E+01
 1.552922735909E+00 2.704058588636E-01 -4.250619118667E-01 -1.416110742156E-01 2.057725110083E+00 -2.481591312452E-01 -9.258352339575E-01 -3.704144370345E-01 -4.075413546881E-01 3.667433271861E+00 -1.550472053135E+01 3.178449614166E+00 -4.177227886749E-01 -9.225609314001E-01 3.870454380863E-01 -1.255246681540E+00 -5.427332692690E-02 1.306308578143E+00 -9.669824775348E-01 -7.736821242510E-01 -8.519939001036E-02 -9.319973194234E-02 3.942766769575E-01 5.227129189167E-01 1.117200331621E+01 3.528203537038E+01
 -7.299408881715E-01 -4.446620262258E-01 -4.226686695666E-01 -4.105897055759E-01 7.075692688027E-01 2.125168353675E-01 -3.698164714190E+00 9.448265606115E-01 -3.408164291409E-01 -4.822748894770E-01 1.987808807078E+00 -1.580862272075E-01 -5.132789124373E-01 6.276916787845E-01 7.715028414981E-01 3.683789605581E-01 -6.478851126321E-01 9.230165451425E-03 -1.533622740175E+00 7.623112804060E-01 6.624560191905E-01 9.940050990621E-01 -4.498465152755E-01 -1.564296003543E+00 2.328623366382E+00 -1.175693091846E+00 1.127284545344E+01
 -1.458348337767E+00 -7.359511441472E-01 -1.426181253804E-01 2.991727899858E-01 3.967574116367E-01 -5.484622837599E-01 -1.382282686277E-01 -9.039030091671E-03 -7.773079311732E-01 -1.347123545572E+00 4.769615308689E-01 2.773486311558E+00 -5.058461788185E-01 -4.703346322246E-02 7.232096165775E-01 6.925738592916E-01 -2.597052697550E-01 -6.263505557720E-01 1.315950902608E+00 8.564412526497E-01 5.223850146170E-01 -3.020886039902E+00 3.136225942440E+00 -8.677416758631E-01 -2.030860564594E+00 -1.373994591664E-01 8.855362835866E-02 1.763065412753E+01
 3.547637137787E-01 -2.162631543137E-01 4.614492986049E-01 8.274500132915E-01 6.568743342268E-01 -3.845030609489E-01 -1.278339363261E-01 -4.449028812918E-01 3.107330876064E-02 -1.828810066273E-01 -2.196230827978E+00 -3.143595600616E+00 -9.359998382045E-02 3.289021035769E-01 3.453837524595E-01 -3.005547260431E-01 -2.558922872985E-01 -1.614167422162E+00 5.457483714362E-01 -4.890398914843E-01 3.036330314537E-01 2.477344504998E+00 -2.962335373205E+00 1.666014181711E+00 -9.430836009958E-02 -1.035321637161E+00 4.863774877826E-01 -7.377394229876E-01 1.227724979638E+01
 -1.795159254488E+00 1.639578216427E-02 5.066780086814E-01 3.249109325764E-01 3.611694800939E-01 1.687994273747E-01 -5.907229604675E-01 -1.560734552312E-01 -3.307579254890E-02 2.795809692312E+00 -4.607560656638E+00 -7.083027177962E+00 -9.174629225960E-01 1.567067218742E-01 1.218786312758E+00 2.549341951537E+00 4.505599776741E-02 -4.663070618808E-01 4.422714950169E-01 6.891543498244E-02 -1.410124127372E+00 -7.150033490750E-01 6.232344022183E-01 -1.394124484687E+00 -1.605418446960E-01 1.350256444205E+00 -1.764644432215E+00 1.442822479919E+01 5.453475627653E+00 3.001664816499E+01
 -2.650712898597E-01 -1.684613506187E-02 -6.769682275284E-01 -4.777203302075E-01 2.224902484121E+00 9.446421837094E-01 -8.073279960367E-01 3.848624353722E-01 1.700766508301E+00 -5.190117784377E+00 -6.947680131382E+00 5.011902257373E+00 7.165945113497E-02 -1.594765417338E+00 1.338044717077E+00 -7.861698767296E+00 1.931776063402E+00 -5.454119516888E+00 -1.247384617484E+01 4.289020842162E+00 3.260494946298E+00 2.025396917554E-01 2.573552676144E-01 1.320321775128E-01 1.552601174955E+00 2.327922079517E+00 2.936500171225E+00 -2.719802545777E+00 -8.844611676187E-01 -1.545997059453E+00 3.368830307559E+01
 7.952368283163E-01 -1.700900508756E-01 3.935712162602E-02 -1.458268049659E+00 -9.536771348104E-01 -2.071607064868E-02 8.440914908472E-01 6.749649422516E-01 7.106076041672E-01 -6.041500421467E+00 -5.371214169297E+00 5.147168601189E+00 -1.810142128249E+00 -4.711080230448E-01 -1.699575961573E+00 3.071056148964E+00 -1.072362103117E+00 3.314246279111E+00 5.283311583623E+00 -1.950599832668E+00 -1.971539949182E+00 7.284996403075E-01 3.483310083508E-01 -1.057438403300E-01 7.267869229433E-01 1.302164895906E+00 -5.991844268254E-01 -1.589032615506E+00 -5.725152119531E+00 -2.234803729607E+00 5.576934344374E-01 2.806323313698E+01
 -3.506365992632E-01 -1.752144962109E-01 -4.288045695445E-01 -8.799521867607E-01 2.504117461820E-02 1.746364898306E-01 -4.954116940345E-01 8.819210800739E-01 -2.611581041140E-01 4.672892965953E+00 4.362876789478E+00 -2.583016825503E+00 1.466165384751E+00 -5.366040155938E-01 -6.553924322611E+00 -6.960575924336E+00 3.562697023887E+00 -5.725773019137E+00 2.778407581985E+00 -1.643440823264E+00 -1.991159606280E+00 4.752364927514E-01 -7.323945846340E-01 -1.839982139474E-01 -7.705036393390E-01 -4.224526542543E-01 -1.453250702276E-01 -1.545479714800E+00 -2.953142646137E+00 -4.311288193195E+00 7.872728833368E-01 -3.090652559066E+00 2.189444844968E+01
 -5.413462127263E+00 2.662985771736E+00 -2.484219286905E+00 3.456166055506E-01 -3.258550068714E-01 1.988812824390E-01 -9.219082162472E-01 5.294087759820E-01 1.320353684259E-01 5.556917026831E-01 -8.610950271305E-01 8.984985356805E-01 -4.222490519694E-01 2.263610204788E-01 3.140046213434E-01 4.277019885850E-01 -3.717551039230E+00 1.470715387964E+00 -1.182383714077E+00 5.731174261843E-01 9.916526233985E-01 -4.953628685587E-01 1.373567900696E+00 1.545500530222E-01 4.367940546703E-01 4.659842146484E-01 -3.925158721845E-01 7.574040977493E-01 -1.036782183825E+00 1.153646849655E+00 -4.428946517805E+00 -3.935699291884E+00 -1.776449341909E+00 1.159362774612E+01
 2.740647292302E+00 -2.914223004658E+00 1.780248592045E+00 -9.274218167391E-01 -2.386005182229E-01 6.199975461222E-01 -1.156542893601E-01 1.275090739789E+00 -3.266594944174E-01 -9.861525346990E-01 1.284993948476E+00 -1.197085862822E+00 -1.790858350379E-01 -4.868806030941E-01 -2.545766761801E-02 -5.261755541202E-01 -2.232924171895E+01 8.038512969553E+00 6.538442038057E-01 -1.132901126964E+00 -1.008404359358E+00 1.194977842419E-01 -5.513392868640E-01 8.255653861144E-01 4.048439498369E-01 -8.431056483256E-01 -6.556084261332E-01 -1.254999064810E-02 1.598154849362E-01 -1.179767251289E-01 -5.508434389424E+00 -3.948433882839E+00 -2.011292032294E+00 3.848058056469E+00 3.296359821518E+01
 -1.989998422596E+00 5.731968075109E-01 -1.609606959470E+00 4.706198228379E-01 -5.059508703398E-01 4.220098611382E-01 -3.570406846757E-02 -1.664705665113E-02 -2.350998008797E-01 9.222599761271E-01 -7.190737998338E-01 4.041506046437E-01 8.230641940956E-01 -6.515033616241E-01 -8.291074106245E-01 1.287125610274E+00 6.176900022425E+00 -2.227519761959E+00 4.971809648485E-02 2.179206816515E-01 -1.000899788302E+00 -3.305438793282E-01 1.142452949893E+00 5.184810511756E-01 5.113650393659E-01 2.498118748001E-01 -1.095087025680E+00 -4.081460863051E-01 -7.922671646338E-01 1.046754508569E+00 -1.722621741630E+00 -6.572382459875E-01 -1.791643040199E+00 2.500649180376E+00 -9.432226183913E+00 1.275397798856E+01
 -3.163865214360E-01 1.648635124807E-01 4.182330251075E-02 -1.469573040805E+00 1.941280951768E-01 7.193365814751E-02 -2.294444671894E+00 -2.440464976914E+00 -1.780473348793E-01 -8.737544349341E-01 -8.076833213870E-01 4.331491409130E-01 7.160302904443E-01 -8.543525906327E-01 -9.013735967207E-01 -7.007521366758E-01 4.026514591612E+00 -2.454786526961E+00 6.124121973946E-01 -3.176840781208E-01 5.338115676427E-01 4.132965344596E-01 1.828784799392E-01 7.473548147649E-01 -8.793795300544E-02 4.703539638599E-01 -2.098660393414E-01 9.104832788431E-01 4.877176815020E-01 7.349881527730E-01 -5.863356621966E-01 1.308991411828E+00 2.038426342611E-01 2.154223488565E-01 5.770965642339E-01 -4.139166074855E-01 2.229066523558E+01
 -7.260163855091E-01 -8.336078478128E-01 -5.274757960200E-01 1.161994210865E+00 -2.337984495427E+00 -1.587722886163E+00 -9.612847513143E-01 -3.479501973275E+00 -1.531233138068E+00 4.347901475119E-01 -3.878021653037E-01 -2.713413279676E-01 -9.354181533710E-01 1.327811368733E+00 -1.695365491599E-01 1.428955063286E+00 -3.840718515369E+00 5.812882568306E+00 8.387323062888E-01 3.334015525573E-01 -1.137228735557E-01 -6.954614760500E-02 2.195312903835E-01 -1.789108554530E-01 -5.881586004691E-01 -7.309726650337E-01 -1.531856524749E+00 -3.912421014567E-01 1.966274275603E-01 -3.032994796711E-01 -1.954775877635E-01 1.066998423401E+00 3.528844729048E-01 2.654245341983E-01 -9.001272277083E-01 4.061169087045E-01 -2.454625749545E+00 1.888969830191E+01
 1.469763220076E-01 7.824458436068E-02 -8.664059215383E-01 1.015130734035E+00 -2.102308106152E+00 -4.414255474244E+00 -1.057332325792E+00 -1.441109582487E+00 -1.906243263492E+00 3.534677718160E-01 5.266250864764E-01 -2.795700659820E-01 7.360929782128E-01 -1.357556493037E+00 7.657772002612E-01 -4.387861455711E+00 5.791945831102E+00 -8.674453688960E+00 1.688949304562E-02 1.874892514237E-01 5.582297809339E-01 -9.424422669558E-01 2.367369060155E-01 -3.607672107847E-01 3.811244018275E-01 -6.138261501361E-01 -1.094598669986E+00 1.040111907260E+00 4.799339337632E-01 1.067925575762E+00 -1.347342134779E+00 -1.136890902933E-01 1.186595786280E+00 1.842557599468E-01 9.108592456476E-02 -5.616241133771E-01 3.425948990936E+00 -1.669921723705E-01 1.846985279632E+01
 -7.120632880261E-01 3.969810543997E-01 -3.704210384646E-01 -8.580838935682E-02 -3.954634144314E-02 -4.288386601317E-02 -3.124661472935E+00 7.506722903860E-01 4.942181704601E+00 7.968163876194E-01 -2.503556174338E-02 -5.573854456499E-01 -1.244753943627E-01 5.074960963477E-01 -7.343469219555E-01 -4.818550686086E-01 -6.964074583950E-01 -4.676750094684E-02 -4.033251142674E-01 9.177111543403E-02 4.316906349726E-01 2.557278367773E-01 -2.768273111624E-02 -1.208287690892E-01 -5.976830132173E-01 7.932005149837E-02 2.821470429557E-01 -3.498040582427E-01 1.592151859258E-01 -1.044324277948E-01 9.863862921817E-01 -5.863669623838E-02 7.067074050782E-01 3.844300177524E-01 -2.675622666925E-01 -1.050093824803E-01 -9.155290156955E-01 -4.205847270243E-01 1.519945328650E-01 9.843618854259E+00
 7.562119218912E-01 3.041348164022E-01 6.356124313904E-02 1.573492031368E-01 5.999128935932E-01 -6.402246466760E-01 -2.111028238680E-01 -1.219289053642E+00 -2.502870475649E+00 5.161415982419E-01 -5.150370165197E-01 2.031945782431E-01 2.462260122795E-01 -3.622342313376E-01 6.551154131396E-01 1.435062760745E-01 8.589000835603E-01 -8.063702073853E-02 3.176734592347E-04 -4.018461457621E-01 -7.070729528516E-01 9.353677932786E-02 -8.489471389229E-01 -1.367891199046E+00 3.396608378610E-02 -7.344219259877E-01 2.247446275995E-01 5.396698208940E-03 6.335706706742E-01 -2.928214309058E-01 -1.424311262456E+00 -1.426383919361E+00 -8.045966377574E-01 2.527593070594E-01 1.363761493287E-02 7.319845820018E-01 1.094327590022E+00 -1.437498878565E+00 6.155760402610E-01 -2.727027515753E+00 2.564304961296E+01
 -2.623866476527E-02 -3.140037198786E-01 4.530629699762E-01 1.349702863349E-01 -7.371096877293E-01 9.123737115774E-01 5.176225779161E+00 -8.244907452310E-01 -9.083876436682E+00 7.358558380814E-02 -7.405594807600E-02 -2.587028783779E-02 6.240097913993E-01 1.502116068711E-01 -1.346274053552E+00 -6.676120109265E-01 3.038356313249E-01 1.815605359732E+00 1.603100216293E-01 1.485819246674E-01 -2.489275956809E-01 2.074009511389E-02 -8.514369804288E-01 -1.368609339289E+00 8.999767936548E-01 6.268754226357E-01 8.028927740957E-01 6.279374635399E-01 -2.631718095773E-01 3.314579192541E-02 -7.048463317866E-01 -4.047746239895E-01 -3.050996393807E-01 -3.982510071798E-01 2.602227206101E-01 -5.523554495982E-01 -1.957816427147E+00 -1.522545605921E-01 -1.728414633631E+00 -4.057436983301E+00 -1.053463706972E+01 2.327088557613E+01
 1.419682105067E-01 -8.086310666019E-03 -3.892003148421E-01 5.193247407253E-01 5.163206983151E-01 7.852339313894E-01 -1.138810686822E+00 -4.395840551612E-01 7.166510019528E-01 5.094140952884E-01 -1.590502375519E+00 -2.942912144081E-01 -1.165374448925E+00 -8.215242413811E-01 2.174638877107E+00 2.601859731746E-01 -4.477208648369E-01 1.774770512669E-01 -1.203874572425E+00 7.559860157362E-01 -3.227557898884E-01 -3.088100345853E-01 2.448572015055E-01 1.110418168016E-01 9.707076380821E-02 1.474510578360E+00 2.145753198566E-01 1.739640564999E-01 6.617112908957E-01 1.083448333697E+00 9.754669888643E-01 -7.947967463775E-01 -4.027512191983E-01 1.315440188911E-01 -6.880370984445E-02 -6.531870728942E-02 -5.832480263142E-01 -6.456630663895E-01 1.597991120104E-01 -3.264187573553E+00 2.947920955808E+00 -2.348912059919E+00 3.588721054537E+01
 -1.683963281927E-01 -1.927345999533E-01 3.009354774470E-02 4.650935085001E-01 3.987471646512E-01 1.678790637701E-02 4.381884469224E-01 2.462989527612E-01 6.084944740290E-01 4.522833090598E-01 -9.488175831819E-01 8.728560376743E-01 -7.127454772998E-01 -8.133375173601E-01 -3.595684278093E-01 8.096245424521E-02 1.714796580717E-01 9.316951994965E-02 5.733480172632E-01 -3.163255421968E-01 2.805338804190E-01 -1.365416342236E-01 9.116377996131E-02 4.651357342495E-01 -1.119858504440E+00 -7.241428236970E-01 -1.649334475362E+00 -2.552069663793E-01 -5.094342927793E-01 -8.367907787939E-01 -9.313797940379E-01 1.005616193370E+00 3.800291619682E-01 -6.292368919542E-01 1.904693938811E-01 -2.746750783871E-01 -5.901418823865E-01 -2.945001905839E-02 -9.281033529840E-02 3.834163771725E+00 -2.484846982119E+00 6.322566037214E-01 -3.122686986312E-03 8.175095074795E+00
 5.161931590497E-01 -6.225356649088E-01 -1.885266136545E-01 3.760350661149E-01 -5.981515169687E-01 2.793394103812E-01 1.514476365961E+00 1.273147607220E-01 -5.179591844938E-01 5.301504666243E-01 1.781162131984E+00 -7.792069711394E+00 2.723947417786E-01 5.385109811265E-01 -1.104530444686E+00 4.300675441996E-01 -9.701325790604E-01 5.920250515657E-01 1.124583672229E+00 -5.102285806103E-01 7.357833777408E-01 -7.375698829678E-01 1.272340410413E+00 1.447578342550E+00 -8.526942588914E-01 -1.091275187781E+00 -3.193375652369E+00 -4.041224966994E-01 -8.246161388804E-01 -5.378486259200E-01 -2.678924526723E+00 7.674812070459E-01 -6.625702122465E-01 -2.747603805239E-01 1.881050931445E+00 -4.265642464280E-02 -5.527168486996E-01 5.231885256227E-01 3.716965812572E-01 -1.677217868302E+00 -9.947870310729E-01 -2.492440727264E-01 -8.080691822966E+00 5.173540400412E-01 1.751660313724E+01
 4.532201434420E-01 -1.739394671806E+00 3.148326340738E-01 1.857534477479E+00 -1.159940931946E+00 -1.287047628279E+00 -9.213320811830E-01 5.535408721122E+00 5.350107698409E-01 -8.193188272858E+00 3.300385353330E+00 -6.035429935080E+00 -3.642941884117E-01 3.042864095102E+00 -1.279199129890E+00 -6.498326918739E+00 -7.838772551352E+00 5.984427528760E+00 7.843873703770E-01 -4.948770534071E-01 -1.685697753671E-01 1.031871290495E-01 -1.093956516641E-01 -6.691203302175E-01 -2.448640367216E+00 -5.509789648670E+00 -1.758662100308E+00 -7.905133555782E-01 -6.434369762419E-01 -1.904524549961E+00 -2.713734892003E+00 1.575817635816E+00 -2.105093759414E-01 -7.324134134394E-01 7.289472175943E-01 3.058680537385E-01 -1.269991756838E+01 6.919351553103E-01 -3.547432328260E+00 -3.272654074782E-01 -2.201192844678E+00 2.577755375475E+00 -2.398327210762E+01 1.617246553834E+00 1.178334165866E+01 5.247773752154E+01
 -1.210154460133E+00 -2.165555101773E-01 -4.260319184605E-01 -9.677244295179E-01 -2.190298574884E+00 9.901745356668E-01 4.532399862116E+00 -5.472289505435E+00 -1.894900356832E+00 1.628213815847E+00 -7.410806501171E-01 2.200204760796E+00 3.880632178376E+00 -1.321560012040E+01 8.851678034330E-01 -8.578789740319E+00 -4.612457111271E+00 6.064885136476E+00 -1.416210644518E+00 2.343626081552E-01 -3.821918803326E-01 5.010170567940E-01 1.480650445865E+00 4.398913727292E-01 -4.787430712643E+00 -6.430128321016E+00 -3.048425865100E+00 4.689518299832E-01 -4.139381849157E-01 4.794341290066E-01 2.150238313074E+00 -2.242379065766E-01 -1.033911767547E+00 5.744710468006E-01 4.107268263155E-02 6.374011968132E-01 -2.511257603216E+00 1.692696090666E+00 -4.100488520753E-01 1.033083962351E-02 -1.394535505438E+01 1.342276651926E+01 1.082721114593E-01 -2.939575373637E-01 7.598251537426E-01 2.568494317471E+00 4.527629344071E+01
 1.720101742314E+00 2.763522206852E-01 1.030290524834E+00 -1.588152285810E+00 2.058381281206E+00 3.740930968602E-02 -1.278516507255E-01 -2.461861788023E+00 -5.007959358008E-01 -7.207270823939E+00 4.225626734789E+00 -8.359863725952E+00 -2.500529496891E-01 1.813774146621E+00 -2.355412820800E-01 8.144523688939E+00 3.729414102029E+00 -4.321487922690E+00 4.526240446703E-01 -1.217109075537E+00 -1.745010327680E-01 -7.230781774387E-01 -5.215697574438E-01 1.090149281775E-02 -2.107539037160E+00 -7.572692125873E+00 -2.667959907134E+00 1.864364329395E-01 1.517653653426E+00 3.014999251835E-01 -1.788580096143E+00 -2.587271021764E+00 1.831321317025E+00 -2.105714037565E+00 2.393584370019E+00 -1.068956246515E+00 -7.156731010992E-01 3.689756331972E-01 -6.955125333770E-01 -1.497540174489E-01 1.375063886438E+01 -1.216761691027E+01 9.683841999149E+00 5.074428135835E-01 -2.973949097697E+00 -1.142939833043E+01 -6.999812408751E+00 6.087402274242E+01
 5.066848985862E-02 9.606464845268E-02 5.580975528004E-01 -1.380942221606E+00 4.567565760938E-01 1.004826159549E+00 4.117962672146E-02 -6.073758606477E-03 -6.231560023900E-01 -8.194388824297E-01 6.426857581999E-01 -6.268156326995E-01 8.980646974862E-01 1.246162329460E+00 -8.993539835224E-01 -5.060948104696E-01 -1.146137580276E-01 -1.857273560216E+00 1.355910827737E-01 7.499826140265E-01 -3.608833074376E-01 8.082343924656E-02 -5.627508916949E-01 -2.074620948073E-01 6.310431476630E-01 -6.369516701138E-01 -8.968761518772E-02 5.046281209624E-01 9.996933194446E-02 4.584138185774E-01 8.158304807064E-01 -7.299649806470E-01 -3.285194163873E-01 9.818054314864E-02 -9.854533959075E-01 4.653696978494E-01 -4.289900808729E+00 2.383050742328E+00 1.378199796651E+00 -1.375501864235E+00 -3.895165332914E-01 3.496242697634E-02 -6.084519896834E+00 -3.291901579958E+00 -2.351177102264E+00 1.346717016905E+00 -2.629587461069E-01 -4.554869216301E-01 1.580326683150E+01
 1.337865762781E-01 -4.010868936450E-01 6.468263094832E-03 -1.094392711357E-01 -7.121253595440E-02 -6.811266869255E-02 -2.847749193711E-01 9.082610862724E-01 3.013763584194E-01 -2.651540784020E-01 -3.201942132187E-01 1.087760946184E+00 1.116219053509E+00 -3.726781985280E+00 3.303101824738E+00 -6.169205205019E-02 7.369447102115E-01 -1.257369592638E+00 -3.026980254323E-01 -1.021096101679E-01 9.251648638358E-01 -6.474758508405E-01 9.846882162428E-01 -1.787230029762E-01 4.580679728949E-01 5.857414373273E-01 -1.272401706092E+00 5.783927696083E-01 2.127471507165E-01 9.237795591338E-01 7.744976264901E-02 1.064850720615E+00 9.583305224050E-02 -5.772785500819E-02 -1.478449880969E+00 1.381464867405E+00 3.388385435306E+00 -1.708423873045E+00 -8.047294812513E-01 -1.291086811471E+00 -6.593683368593E+00 -2.407649694546E+00 -1.386878897881E+00 -3.509672002051E+00 -7.045580169238E-01 -1.425075661116E+00 -3.567299847264E+00 -8.257222725226E+00 3.664778610985E+00 2.367639873105E+01
 -3.230756532716E-01 2.772053459736E-01 4.815568717463E-01 -1.580045302654E-01 5.455972774059E-01 -5.369785223234E-01 9.586821091317E-02 -3.902421577229E-01 1.414648788076E+00 6.146700725611E-01 1.683461367778E-01 2.519246675480E+00 -1.926364210302E+00 3.106332469206E+00 -6.471722893779E+00 -1.554057515917E+00 -1.470240752350E+00 1.905554919466E+00 3.133654847377E-01 3.310890688719E-02 1.669321981098E-01 8.204289942425E-01 -9.876417067784E-01 -9.891519075483E-01 -3.451110995531E-01 -6.695817931593E-01 -7.571386501473E-01 2.765018535003E-01 9.622990542140E-02 -3.032308350365E-01 5.923220975183E-01 5.896944795310E-01 -4.347425477424E-01 3.454368154856E-01 -5.098442232574E-01 -6.560398545999E-02 1.833673143923E+00 -6.521953293378E-01 -2.307708168592E+00 6.541814850508E-01 9.790159306020E-01 -7.327440707060E-01 -1.966520486349E+00 -1.187227516700E+00 -3.006643394456E+00 -1.856660319607E+00 -8.605580321285E+00 -1.446124271514E+01 9.738486511674E-01 5.019722988689E+00 2.701843399552E+01
 -5.265360276234E+00 1.188318737403E+00 3.931570733001E+00 1.356021119790E+00 -7.412053370708E-01 -5.450931511255E-01 9.328068602954E-01 -5.462179428363E-01 -9.844224234043E-01 -2.468803094781E-01 3.282270859325E-01 7.453139338166E-01 -7.325551335612E+00 -4.572937250060E-01 -2.414503109953E+00 1.385929760197E+00 -1.518961961172E+00 -2.776315292403E+00 6.241944163253E-01 2.055007229138E-01 -4.837126437007E-01 2.904063050042E-01 9.781210586937E-01 6.537384675500E-01 -1.437573125021E+00 -1.501531280984E+00 9.624110450176E-02 2.769269526459E-01 5.653902314608E-01 3.804973214204E-01 9.004592399074E-02 3.562090274269E-01 4.761618096997E-01 -1.425991491817E+00 9.888813122991E-02 -1.180644370332E+00 -4.600368527881E-01 8.683473134517E-01 1.049462643281E+00 -8.203967853040E-02 -2.692565448310E-01 7.178443141442E-01 -1.432840225157E+00 -3.339356964469E-02 -1.160807540071E-01 7.805153549917E-01 1.198467057263E+00 9.029264869834E-01 -5.172337126825E+00 -3.481874504254E+00 3.332762365125E+00 1.681982055418E+01
 3.899545910091E-01 -1.165749984254E+00 -1.687553649112E+00 7.021877202407E-01 -9.077365638170E-01 -2.762534027325E-01 -4.897506250764E-02 -1.022473871997E+00 -3.844715204590E-01 -7.638215841709E-01 1.965324482323E+00 6.570371045665E-01 -1.088416981849E+00 -1.612711321191E+00 -4.662838147338E-01 -8.169140701292E-01 -6.675782547090E+00 -1.006906006349E+01 1.645267345183E-01 -2.689381365219E-01 4.455941860719E-01 -2.590983097856E-01 -7.427482772322E-01 1.336906358353E-01 1.528503380955E-01 -7.167649118866E-01 5.369490815634E-01 2.026480844158E-01 -1.062282063635E-01 4.606112750175E-02 -1.409497792775E-01 -3.088180971394E-01 -5.125216743262E-02 -1.054820273769E-01 -1.046257143350E+00 2.444792184823E+00 -7.011603697163E-01 -7.036196927408E+00 -4.404437723040E-01 -9.179337117876E-02 1.782671027885E-01 -3.727710410464E-01 -2.722071964718E-01 7.160808099468E-02 -1.175187934435E-01 9.682042491205E-01 6.859111918627E-01 2.292719131774E-01 -2.398723640348E+00 -4.023142068117E+00 2.085688591027E+00 3.110876465414E+00 2.088826643713E+01
 2.450830694123E+00 -9.046343934322E-01 -4.115249315135E+00 -3.624786955956E-01 -2.124142455421E+00 6.133857604007E-01 4.921973232838E-01 -2.040506714699E-01 -8.762273227448E-01 -1.245641544388E+00 5.767900945870E-01 -1.318631496127E+00 -1.668898188632E+00 -6.183884024727E-01 -1.469875816448E+00 8.041450500450E-02 -6.916660968245E+00 -9.063512580220E+00 -2.216974827470E-01 -3.027737776623E-01 -7.856428345478E-01 -2.021048068779E-02 -6.755796397902E-01 2.197469981699E-01 -2.198912510051E-02 1.302085576693E-01 6.745352692725E-01 -1.026731127121E-01 5.521596749963E-01 4.471854228849E-02 -4.211587443466E-01 -3.548311021753E-01 8.116094841566E-02 -6.414748582791E-01 1.068062786209E+00 -4.788292872029E+00 3.701838107191E-01 -4.587162914181E-01 -1.092477081270E+00 4.872683655959E-01 3.247700742183E-01 -2.206454805487E-01 -5.697837070047E-01 1.991934464143E-01 6.405457681396E-01 8.129111161594E-01 -3.246799405076E-01 1.999076852340E+00 2.523913816653E+00 2.404899119180E+00 -3.917495934244E+00 -2.016627534293E+00 7.242289079774E+00 2.473437434009E+01