#BIOSYM hessian 1
@Type: Hessian Update
@Units
 distance: 	A
 energy: 	Kcal/Mol
#header
@natom 4

#label
L1      L2      L3      O4

#element
Li Li Li O 

#matrix
12
 1.902120137150E+02
 -1.898870780659E+02 2.278090428536E+02
 -9.590348003474E+01 1.171488992455E+02 6.071042540702E+01
 -2.424296658473E+00 -2.278028013651E-01 2.423701960200E+00 4.079177562910E+02
 6.139028847452E+00 -2.017564024529E+00 -7.061106221568E-01 1.223186468800E+02 4.166926715235E+01
 9.071739069460E-01 6.847777418572E-02 2.551154034758E-01 4.399257064450E+01 1.555091439619E+01 6.205117054383E+00
 4.870618632089E+00 2.304294582551E+01 8.747189899650E+00 6.460128999621E-01 1.258099325840E+01 2.290477346018E+00 8.047744669366E+01
 -2.112420792257E+01 2.979342597836E+01 3.332368776100E+00 6.601572214289E+00 3.377964592870E+01 9.857837794623E+00 1.682403638376E+02 4.668029745089E+02
 -1.478381395769E+01 2.237180846787E+01 3.954929778285E+00 7.857684900485E+00 2.345477973248E+01 7.158294657216E+00 1.091551837168E+02 3.009018846401E+02 1.942423439301E+02
 -1.926583356886E+02 1.670719350418E+02 8.473258817489E+01 -4.061394725325E+02 -1.410386689859E+02 -4.719022189747E+01 -8.599407822571E+01 -1.537177281293E+02 -1.022290546596E+02 6.847918864468E+02
 2.048722571411E+02 -2.555849048075E+02 -1.197751573994E+02 -1.286924162930E+02 -7.343134905652E+01 -2.547722996500E+01 -2.038643029215E+02 -5.303760464160E+02 -3.467284728404E+02 1.276844620734E+02 8.593923002800E+02
 1.097801200855E+02 -1.395891854875E+02 -6.492047058878E+01 -5.427395750519E+01 -3.829958350651E+01 -1.361852711508E+01 -1.201928509625E+02 -3.140920912108E+02 -2.053555683656E+02 6.468668838217E+01 4.919808602048E+02 2.838945660695E+02

