#BIOSYM hessian 1
@Type: Hessian Update
@Units
 distance: 	A
 energy: 	Kcal/Mol
#header
@natom 19

#label
L1      L2      L3      L4      L5      L6      L7      L8      L9      L10     L11     L12     L13     L14     L15     L16     L17     L18     L19

#element
Li Li Li Li Li Li Li Li Li Li Li Li Li Li Li Li Li Li Li

#matrix
57
 1.470014826285E+01
 -6.073571846319E-01 3.740366253897E+00
 -3.911786989445E+00 1.282961953569E+00 7.750717440320E+00
 1.061780569425E+00 1.482060262926E-01 2.768444574954E-01 1.694613867229E+00
 6.881286273062E-01 -5.851470404688E-01 -5.677262196699E-02 2.754201838925E-01 2.999743597599E+00
 -3.686066663421E-01 5.459495359179E-03 3.804781690014E-01 1.130592874568E+00 -2.299576227412E-01 1.779618098184E+00
 -3.642820335585E-01 -1.856493112238E+00 -5.192686332034E+00 -2.485338379962E+00 -1.496119157137E+00 -1.088675564368E+00 1.290745553487E+01
 -3.506254019156E-01 6.102907569030E-01 -2.527975578413E+00 3.676898521579E-01 -1.217905262403E+00 9.979326350136E-01 6.359720926659E+00 1.629651028979E+01
 7.345278986675E-02 5.252398672395E-01 2.481977796125E-01 -1.838097228244E+00 5.345568472808E-01 -1.634807112794E+00 2.754999726712E+00 2.308405360902E+00 9.502336463636E+00
 -1.487699967567E+01 1.723096145308E+00 2.321777216464E+00 -6.737645213323E-01 -1.800176945298E+00 6.231010057148E-01 -2.598787143946E-01 2.144349685410E-01 -1.819041777287E+00 1.987728652893E+01
 1.552873277035E+00 7.291590727842E-02 -3.934584676647E-01 6.873788990319E-02 -1.451443958145E+00 -6.681178122718E-02 9.495801782259E-02 -1.619313440471E+00 -2.462039575485E+00 -7.865943742840E-01 6.709460707633E+00
 5.117725852941E+00 -1.379401959092E+00 -6.707992984219E-01 -7.465816411013E-01 -3.246675759237E-01 -8.993230394684E-01 4.435752549969E-01 -6.689904705631E-02 -3.646642286045E+00 -4.917205702333E+00 -2.179117912142E+00 2.429190723358E+01
 -4.464570752395E+00 1.739085477251E+00 1.857176616334E+00 -5.583779325032E-01 -7.452970081171E-01 -1.984278498872E-01 3.082545463292E-01 -1.683441950934E+00 -1.680042309986E+00 3.811236423001E+00 -3.401338846113E-01 -4.152424443764E+00 8.194037334407E+00
 -1.111953109957E+00 -6.893781369970E-01 -2.960839861471E+00 -5.351143446260E-01 -1.165512558679E+00 -5.408701961610E-01 3.248142052856E+00 6.752243087940E-01 -5.904604787211E-01 1.402072662463E+00 -1.005295646540E-01 -2.861494989987E+00 1.723958048549E+00 5.030484143114E+00
 -2.442572215994E+00 -2.137783222726E+00 -4.025409202640E-01 3.105765667119E-01 -1.470646579162E+00 5.928124434606E-01 9.947767112719E-01 1.068692705644E-01 -3.763582863585E-02 1.399011625801E+00 8.907005607908E-01 -3.773601621380E+00 -1.646185684922E+00 3.513851014878E+00 8.104808006847E+00
 -1.412128774651E+00 -1.378888957668E+00 2.035106433006E+00 2.089382786762E-01 -5.448697996598E-01 5.512942273984E-01 -1.339437149131E+00 6.490052764346E-01 6.689982470196E-02 -8.777814981643E-02 -4.135910953089E-01 -1.241525131538E+00 -1.316143924509E+00 1.147365794579E+00 4.143646075452E+00 4.927306610183E+00
 -3.511361681410E+00 -1.902753884462E+00 6.186832891729E+00 -7.740401960514E-01 1.626805976092E+00 -9.526028726240E-01 -3.126743037737E-01 -2.904421952337E+00 -8.141873265286E-01 -8.696269307295E-01 -8.415233783350E-01 6.200903201047E-01 3.348641256755E+00 -1.696852038859E+00 -1.667669212389E+00 2.036602804832E+00 2.464174323458E+01
 2.126592386670E+00 3.449845097551E+00 -2.530576167754E+00 -7.579611938243E-01 6.364454151667E-02 -1.966749321162E+00 3.574975821287E+00 2.389327912486E+00 -1.347947279437E+00 2.507949969014E-01 5.262858941143E-01 5.891415831544E-01 5.072021894848E+00 1.525557865938E+00 -7.124613016016E+00 -5.089833420327E+00 6.961399862071E+00 1.970682131994E+01
 1.061585223319E+00 1.546801568025E+00 2.073520382012E+00 -4.766157097827E-02 -1.156041945396E+00 -4.574792028779E-01 -1.595548929853E+00 -1.087310640059E+00 1.845142149654E-01 -9.440576082082E-01 7.807357949717E-01 7.671035275838E-01 -2.017187060070E-01 -2.538219630599E-02 1.645800815927E-01 1.011847085506E+00 2.588175156015E+00 2.228292581718E+00 4.591693406803E+00
 3.592259144252E+00 6.794885701359E-01 -3.440128857603E+00 5.838986665932E-01 -3.975509838906E-01 1.200918272803E-01 8.125877006826E-01 3.509969184366E-01 -1.047678914873E+00 -5.037820626660E-01 9.380625175657E-01 5.363928366419E-01 -2.104614868788E+00 9.314557977926E-01 -2.068089389176E-01 -1.938825159505E+00 -7.057779182315E+00 1.782703132935E+00 5.911680355733E-01 5.512466303686E+00
 3.417912063610E-01 -7.190282418908E-01 2.655686031644E+00 1.057767500186E-01 -7.345170858295E-01 -4.531812747699E-01 -1.563286249196E+00 -1.336423784423E+00 3.602801770305E-01 -4.232632772231E-01 9.242318963003E-01 1.793130237034E+00 -1.844376796808E+00 5.178945782046E-01 1.949583982917E+00 2.815393537079E+00 1.068916191950E+00 -1.834531172144E+00 1.551175986989E+00 -2.126290936018E-01 1.254212945051E+01
 -3.325865841623E-01 -3.210358718343E-01 -1.466406253981E+00 5.229293264306E-02 8.993411570699E-02 -5.267793857875E-01 -1.306723510541E+00 -1.697126278817E-01 4.636871028932E-02 1.637332051904E+00 4.481306724305E-01 4.937193454600E-01 -1.130689476211E+00 -4.846102076095E-01 -1.028986252309E+00 -1.176193404322E+00 -1.759841980037E+00 3.695886530600E-01 -1.992314717018E+00 -5.928184795396E-01 5.210762188621E-01 1.223351140144E+01
 -3.909314782915E+00 -1.228831277927E+00 2.930628873761E+00 -4.972418850246E-01 -3.155299682798E+00 -1.558871845466E-01 1.064556377917E+00 9.048659433847E-01 -5.977733768794E-02 2.052543851055E+00 -8.456833947136E-01 -2.159756602016E+00 4.455965838620E+00 2.451597036448E+00 3.229074665909E+00 2.174264789466E+00 -5.123785097367E-01 -4.320248541211E+00 1.172281384131E+00 -1.298571746028E+00 -1.905753270143E+00 -5.953533715235E+00 2.659560346208E+01
 -2.717329937578E+00 -5.455671595091E-01 1.013016015873E+00 -4.029974258844E-01 -1.444038313269E+00 -2.176070063307E-01 -2.114262591497E-01 3.095809168094E-02 2.930678313067E-01 1.090881256775E+00 -1.302443629637E+00 -1.494345644269E+00 3.799063302618E+00 1.647243730467E+00 1.721116508540E+00 1.004741584932E+00 4.422278217183E-01 -2.421286331934E+00 -1.017568351947E+00 -3.062874472465E+00 -3.722202657870E+00 1.595006609385E-01 1.102731748953E+01 8.488047366250E+00
 1.019420650569E+00 3.718631972345E-02 -2.636741591464E-01 5.157532782735E-01 7.236207661828E-01 3.831308640087E-01 -1.144494530971E+00 -7.914790997103E-02 -6.751646628248E-02 -4.903015373295E-01 4.340411075747E-01 -6.938611075085E-01 -1.072252960088E+00 -1.090918900309E+00 -8.793205853428E-01 -4.928616304205E-01 -1.284666910606E+00 -4.467031180291E-01 -5.901042396651E-01 5.614640502959E-01 -1.470687020307E-01 -6.991167431948E-01 -1.198228556364E+00 -1.135294620497E+00 1.377920719330E+00
 -9.697986917381E-01 -9.020581716819E-01 3.208790510634E-01 -8.841175952694E-01 -3.649335318120E-01 7.182650133855E-01 2.317166314044E+00 1.842504856184E+00 5.436760033206E-01 6.347188382692E-01 -5.168428057769E-01 -5.120269771023E-01 -4.566803185935E-01 -5.310944273972E-01 4.172594667075E-01 1.069665714704E+00 -3.972389437559E+00 -5.138288735709E+00 -4.314352525854E-01 1.104952706975E+00 2.322986098133E+00 -6.439766862037E-01 -1.858277653964E+00 -2.588364598060E+00 -3.375418336416E-02 1.358444661847E+01
 1.147155441621E+00 -7.705568860446E-01 -1.380120074130E+00 -1.271438715307E-01 -4.412139493439E-01 4.540837472920E-01 1.811977780823E+00 5.548158198935E-01 -6.870147492980E-01 -1.776525523563E-01 -1.241470822435E-01 -8.803180476819E-01 -4.854213789201E-01 5.875238860067E-01 -1.316846593332E-01 8.710850651419E-01 1.087919123734E-01 1.417828994089E-01 -4.238506305686E-02 6.739941292658E-02 -4.461900601174E-01 -4.117930482639E-01 -2.219800622223E+00 -9.351274189869E-01 1.659539043053E-01 2.124798953505E+00 4.346638649990E+00
 9.137569438818E-01 -5.990385290311E-01 1.368269770172E+00 -3.210655405937E-01 4.199211436331E-01 -4.728334263505E-01 -2.805607124776E+00 -3.011533865318E+00 4.908939122306E-01 -2.075700945451E+00 -1.102388389964E+00 1.838849312535E+00 4.717854658590E-01 -1.017983673512E-02 -6.233101025100E-02 1.301772142772E+00 1.045230411932E+00 -2.212737548059E+00 -3.356343055849E-01 -1.840600492733E+00 2.570891896914E+00 5.836389662685E-01 3.921030567840E-01 1.535811015296E+00 -1.972720038380E-01 1.247070087652E+00 1.208568311883E-02 4.061243365851E+00
 -7.161457440164E-01 -1.380625162276E+00 1.225850032070E-02 7.880859089514E-02 1.183514383152E-01 4.018217587425E-01 1.765682550682E+00 -2.948284037157E-01 5.376169974265E-01 9.601902531717E-01 -1.330674938648E-01 -2.908491425937E-01 -1.238292788219E-01 -2.627326914136E-01 -1.040470206966E+00 -8.142189143353E-01 4.101921537745E+00 1.449277299949E+00 -1.181266848577E+00 -5.958219245811E-01 2.264909439353E+00 3.898572874240E-01 1.404777117675E+00 -7.748516134870E-01 4.083925312329E-01 -1.897687301912E+00 -4.743630549690E-01 3.202491567233E-01 9.204231754499E+00
 -2.711882089328E-01 -3.087867245432E-01 -2.094546961361E+00 -1.249911278249E-01 -1.083977260267E+00 -5.628649956030E-02 8.224112873944E-01 -3.755256897813E-01 -2.115330092867E+00 4.669552165772E-01 7.725921303005E-01 -2.713471397232E+00 2.087002657576E+00 3.169718478827E+00 2.578438904792E+00 7.091675419077E-01 -1.560287174827E+00 2.647433226171E-01 -6.293860091688E-01 -8.984690240111E-02 -2.338024404781E+00 1.302316879252E+00 -9.354526941719E-02 2.737272016056E+00 -8.314932655491E-01 1.253815952488E+00 1.220082251782E+00 6.915731653203E-01 -3.625518943730E+00 6.683290049373E+00
 -2.660447225252E-01 -6.615962712327E-02 2.245477030480E+00 1.754733318168E-01 2.273364501611E+00 -7.544045541821E-02 -2.818739777936E+00 -1.574337879003E+00 -1.034518896480E+00 -2.426518600042E+00 8.486712241693E-01 -8.078538611287E-01 5.985835870055E-01 -1.127791086741E+00 -4.950221184895E-01 1.073808556938E+00 2.131257014722E-02 -1.244639705631E+00 -1.517134844427E-01 -1.268008683450E-01 5.929913676374E-01 -4.817720263301E-01 2.720863872812E+00 -8.560025579820E-01 4.499184029152E-01 -9.910191673447E-03 -2.644433464418E+00 -7.531317935346E-01 -1.933609811254E+00 -2.117421639668E+00 1.435474918166E+01
 4.792613600176E-01 -2.525121292191E+00 -2.372986042520E+00 -4.673878159413E-01 -6.660927502566E-01 3.040442242482E-01 3.002714802620E+00 -7.591524223965E+00 7.435227230579E-01 8.819421398268E-01 -2.614260795258E+00 3.126023087688E+00 -9.343888411648E-01 7.719172841657E-01 1.886607355118E+00 -1.258239667581E+00 7.592558462873E-02 -2.294296738105E+00 -1.291278761067E+00 8.587229007152E-01 -8.284303784977E-01 2.589108452841E+00 -4.252391196359E+00 -7.304260823426E-01 -7.297242352510E-01 7.079659427712E-01 1.805006057155E+00 3.920436241615E-01 2.496610653245E+00 1.025642112483E+00 -3.427773352420E+00 2.073405060934E+01
 9.988773351408E-01 1.354000778846E-01 -7.050517018747E-01 1.837268927020E-01 1.148917291035E+00 -4.451136611770E-01 -9.900481414388E-01 5.435755594938E-01 7.307654386771E-02 -1.194609894199E+00 3.438238895438E+00 -7.230747743227E+00 -6.024916051324E-01 -2.410024985966E-01 -5.444406697899E-01 -4.056019875367E-01 -2.309156026676E-01 5.835090728813E-02 -4.845272458292E-01 9.571641460352E-02 -5.658571861574E-01 3.968966368505E-01 -3.392633551264E-01 -3.902286221266E-01 9.983441694389E-01 6.974928573504E-02 4.230645112211E-01 -1.257340150750E-01 -1.786744659145E-01 4.605908809465E-01 -1.856537609390E+00 -9.836363705813E+00 1.111723067996E+01
 -6.903790725267E-02 8.688780400661E-01 1.185732190503E+00 2.549173741864E-01 -4.371677757111E-01 -3.361171137608E-01 -8.448928184257E-01 1.268532414981E-01 1.056808904988E+00 3.495410911838E-01 8.784285177150E-02 -7.703502878963E-01 -5.157706933217E-01 -1.096091960280E+00 -4.115841183308E-01 -8.156543613808E-01 1.243289385099E-01 -1.336886631100E+00 9.816061010463E-01 -3.770118867231E-01 9.969109690253E-01 -8.913694158908E-01 9.489174674892E-01 7.024045634375E-01 -8.493469562914E-02 -1.232581579618E+00 1.610412397477E-01 -1.364097278846E-02 -4.050678135469E-01 -8.095421071290E-01 -8.090927007865E+00 -5.851171586013E+00 7.148585350409E+00 1.332038224856E+01
 -1.583315573026E-01 3.337342480951E-01 -2.686367646657E-01 -3.527010323300E-01 7.102088655843E-01 -2.516544494394E-01 -8.604832440915E-01 -3.697001351537E-01 5.456793265901E-01 8.863580178589E-01 4.198807519875E-01 -1.191197806271E+00 -9.293018640291E-01 -5.470533990646E-01 -7.478105705495E-01 -3.686118554093E-02 3.813779103356E-01 -1.926642833521E-01 3.064250149235E-01 5.305474721556E-02 -2.236546052030E+00 -1.601325463408E+00 -1.162464482281E+00 -4.108364212349E-01 6.048448066326E-01 2.125961851855E-01 7.845915786719E-01 1.655121235912E-01 -5.634655325004E-01 -5.168998049775E-02 -2.384058961112E+00 -3.326992501046E+00 3.815893885527E+00 2.758807116715E+00 4.022025315991E+00
 1.268029614968E+00 5.078630116327E-01 4.370499504510E-03 1.902220203095E-01 1.936338858184E-01 5.266309095366E-01 -1.671215365236E+00 -1.014393585235E+00 6.768358287272E-01 -9.991012295801E-01 1.837854030410E-01 7.614289659052E-01 -9.923965284788E-01 -6.654245130091E-01 2.132260613331E-01 9.504241216787E-02 -8.526239572743E-01 7.933314732053E-02 7.583730955210E-01 1.226301675524E+00 -2.367791797720E+00 -6.905407406932E-02 -2.664371641751E+00 -1.425203363674E+00 3.072925148527E-01 9.341567873912E-01 -1.132116278861E+00 -6.139668569918E-02 -1.528735065824E-01 -9.328029175572E-02 4.427595391269E+00 5.211076382252E+00 -5.737503098426E+00 -9.108340805539E+00 -6.633980510601E-01 1.012487053411E+01
 -5.971296395060E-02 4.498468104177E-01 -1.214780299426E+00 -9.742334128578E-01 -3.607728632062E-01 -5.465624548052E-01 1.968012565294E+00 1.577697879806E+00 9.231070347988E-01 2.123972751426E-01 2.720489466942E-01 -2.102028504314E-01 6.912960119128E-01 1.378567213166E+00 -1.237531149052E-01 -1.051164837093E-01 -3.512460504413E-01 2.355896708643E+00 4.151516080167E-01 6.214292260496E-01 -1.268319761717E+00 -7.616222761057E-01 -2.303407569566E-01 -1.113022359419E-01 -3.290021636468E-01 1.525227979260E+00 -3.729307800944E-02 1.906206804540E-02 -7.686583685569E-02 1.059057687613E+00 3.514703029813E-01 -9.391014574584E-01 -3.589555364442E-01 -2.684996705566E+00 9.405040063341E-01 2.691651886699E+00 2.881290542536E+00
 1.172205825024E+00 4.228047843627E-01 -6.779898704694E-01 3.012152269629E-01 5.759787559173E-02 -5.115767650013E-01 -6.020289932987E-01 -3.740758292574E-01 -1.394933803425E-01 5.255927144962E-01 -5.071969761782E-01 6.327281972616E-01 -8.440240162413E-01 1.904822210413E-01 -1.290964180820E+00 5.747544329683E-01 1.151946207360E+00 3.158253810024E+00 5.939421854657E-01 -7.712472243169E-01 6.898317977161E-01 4.120636455648E-01 -5.820582297053E-01 1.215883161649E-01 4.153363333672E-01 -7.692762906979E+00 2.076645551583E+00 -1.125521471854E+00 -3.448070231928E-01 -1.315576750346E+00 -4.251037887147E-01 -3.645120835292E-01 2.203996016237E-02 1.695001873603E+00 -2.539412328735E-01 -3.651446641321E+00 -2.310565632607E+00 1.109120054740E+01
 5.784856695093E-03 -1.096039704221E+00 -1.981016866553E+00 -6.547194391184E-01 -9.008371844324E-01 -6.114299887472E-01 4.085908502355E+00 -6.181786524146E-01 -2.560337299602E+00 -5.282088845805E-01 1.420154862988E+00 6.838180024991E-01 1.909112694137E+00 2.062515999861E+00 1.003141076081E+00 -1.162239514151E+00 -8.056601449144E-01 1.056856885125E+00 -8.537631455189E-01 6.741412977186E-01 1.992919503143E-01 6.148092671411E-01 2.278000735357E+00 1.268844119298E+00 -1.013140320223E+00 1.522762766040E+00 5.968273655575E-01 -7.030320288411E-01 -1.884918816598E+00 2.540672058016E+00 -1.180222371987E+00 1.864679590647E-01 1.741410200970E+00 2.909857122648E+00 -1.224071209983E+00 -4.680070017562E+00 -9.052304584196E-01 -8.079814895688E-01 7.196051515161E+00
 1.804374166101E+00 -1.184336150319E+00 -1.456165853648E+00 6.914306054554E-01 3.115225522036E-01 4.519595030820E-01 -4.535252157741E-01 1.267366947021E+00 -8.438907521156E-01 -3.371630091468E-01 -8.974178930564E-01 8.979431145550E-01 -1.591461087249E+00 1.932663218653E-01 -3.465005926993E-01 2.880108222368E-02 1.229277175200E+00 1.062083418340E+00 -1.468273848283E+00 4.685194225856E-02 3.176092997101E+00 -2.292172652805E+00 -3.404497469670E+00 -1.356904700700E+00 1.226537264442E+00 2.259486365334E+00 1.671854452683E+00 2.772282221499E+00 1.966384590011E+00 1.502732016262E+00 -6.815825171969E+00 8.524429182118E-01 1.392692719418E+00 1.749306581611E+00 1.529528147452E+00 -1.424292377070E+00 9.943851871443E-02 -9.897598116680E-01 -4.124962060358E-01 1.280284550527E+01
 -2.676315166415E+00 1.854080442755E+00 1.867061535097E+00 1.042732251012E-01 -3.920626063331E-01 1.336059099501E+00 -1.245553691733E-01 1.454246761126E+00 1.689711264656E+00 3.543190542674E-01 -1.175635394829E+00 -3.023191331168E+00 3.032114228958E+00 2.807059900581E-01 1.848762914065E+00 1.530883434165E+00 -3.584144966821E+00 -5.229106952996E+00 -1.142251301169E+00 -2.524810695462E+00 -4.136063979494E-01 -2.269892091808E+00 -3.079317633884E+00 9.997161488524E-01 -6.261360148291E-01 1.879353007682E+00 2.089307805161E-01 5.540274831676E-01 -2.541591690912E+00 8.672928577195E-01 -9.883885587098E-01 -1.397321958164E+00 -7.386113741360E-01 2.450136101515E+00 -1.450375081027E-01 -1.053440472317E+00 -3.013447769762E-01 -1.001841236391E+00 -4.664823466423E-01 -2.782790938048E+00 1.308893901339E+01
 8.776250835969E-01 1.320755837360E+00 1.915212797122E-01 -3.655863907436E-01 -3.217003634611E-01 2.402512558157E-01 -1.252092911874E+00 -1.938422966146E+00 -6.560896514474E-02 5.034680628967E-01 -6.506758755135E-01 1.264140283546E+00 -8.915554431005E-01 -1.493300203807E+00 -1.150584261250E+00 -1.361495927018E-01 -4.111115047010E+00 -2.385086834870E+00 2.542138024315E+00 2.180017779705E+00 -6.735219319616E+00 -1.567431400984E+00 3.208676119013E+00 6.579122960099E-01 -2.774576338264E-01 1.133441224674E+00 1.425014486136E+00 -2.261588303116E+00 -4.036379714524E+00 -3.678964469800E-01 2.338827987225E+00 8.523378936025E-01 -1.025355365504E+00 -5.574373127502E-01 1.766210539097E+00 2.420587023014E+00 4.344525137957E-01 1.267583755449E+00 -1.212371912984E+00 -7.066794530934E+00 2.651400745094E-01 1.243706047125E+01
 -2.595646722161E+00 1.930144279587E+00 1.665270885878E+00 4.785504980254E-01 -1.984575795578E-01 6.899284101687E-01 4.915403073333E-01 1.249871679047E+00 -2.274883014429E-01 7.577339625770E-01 6.743878039542E-01 -2.473861028914E+00 2.865387700917E+00 -3.150404536540E-01 6.179526273691E-01 -1.046223411080E+00 1.169732265859E+00 6.643006130979E-01 7.644731348854E-01 -3.679752574339E-01 -2.952886571391E+00 6.811029270094E-01 -1.151518594770E+00 2.380234317010E-02 -1.241600879262E+00 -1.335551685974E+00 -2.516124195363E+00 -2.901162687318E+00 -1.092661467138E+00 -4.405923021871E-01 2.320927442128E+00 -1.396174731788E+00 -5.938232136736E-01 9.254762308892E-01 -1.259324134634E+00 6.573418082313E-01 -1.884389203507E-01 -2.461481972785E+00 7.516473336888E-01 -7.615225637788E+00 5.920890149072E+00 2.034297874191E+00 1.013850726596E+01
 8.263606202131E-01 1.044717334572E+00 -6.061340157752E-01 1.555270448030E+00 8.158433397891E-01 1.129628532244E-02 -3.113935202780E+00 -2.505641903076E+00 -5.440510236442E-01 7.836586774141E-01 4.592769388081E-02 -5.455378902965E-02 -1.396729712531E+00 -1.317868812625E+00 -2.760695917222E-01 -3.805155279035E+00 -1.254723399932E+00 1.923589088054E+00 3.072784596162E-01 3.085753762975E+00 -3.788601280827E+00 -2.695358338414E-01 2.099963656897E+00 5.295189382539E-01 7.845871374609E-01 -5.556439129800E+00 -3.944909658132E+00 -1.968054970519E+00 9.353563993959E-01 -8.557713210237E-01 -1.366824772270E+00 1.666031240431E+00 6.163726544217E-01 2.611699105097E+00 3.641034295159E-01 1.175368734728E+00 -1.051908458447E+00 -2.002823556799E+00 7.920906152938E-02 4.579196453975E-01 -4.791373897570E+00 1.423017043280E-01 1.739101797960E+00 1.367237574511E+01
 1.025244403692E+00 -9.587291795218E-01 2.508581404410E+00 1.170885535308E+00 1.721233775120E+00 2.624189240882E-01 -4.181537285826E+00 -1.026859305485E+00 9.176484740477E-01 -3.746731815706E+00 -7.443936683138E-01 1.249442346220E+00 -1.331562473082E+00 -1.646241650148E+00 4.151501248804E-01 6.125118547623E-01 2.389909707884E+00 -3.565269211621E+00 -1.049558724691E+00 -1.615894532741E+00 3.554436947516E+00 1.069698022935E+00 1.238494444186E+00 4.006900883174E-01 4.209146938440E-01 -2.569763538856E+00 -3.924892666162E+00 2.231223505855E+00 3.767345395527E+00 -2.937569817594E+00 2.603686668938E+00 -2.286825328585E+00 5.670672763650E-01 5.086244961992E-01 -9.275970199925E-01 2.095243403344E-01 -1.256283412088E+00 -1.910150924705E+00 -2.657831647577E+00 5.507206080584E-01 1.225424078711E-01 -4.898407617555E+00 1.038056647916E+00 2.362803914820E+00 9.274822713480E+00
 -1.321799542598E+00 -3.495583856996E-01 -4.009101781559E-01 -5.912143108366E-01 -1.250296240256E+00 1.752672551872E-01 1.813045543595E+00 4.325334453111E-02 -1.786488830998E-01 1.221167351828E+00 1.985713553532E+00 -3.649852474908E-01 4.436222302231E-01 -4.287641895399E-01 8.448741313582E-01 -8.116482692857E-01 -3.855347933200E+00 -3.065098731961E+00 -1.242085873008E+00 -1.484425720267E-01 -4.541588681285E+00 1.446812039913E-01 5.934886811054E+00 3.464631281771E+00 1.062270712736E-02 -1.612424528941E+00 -3.790382869845E-01 -1.806576344795E+00 -1.439032310237E+00 4.558693190906E-01 2.266046159725E+00 9.665853045448E-01 -6.786746518539E-01 -1.432264254403E+00 -5.824921871813E-01 6.756892765423E-01 -3.998475384065E-01 8.553767994841E-01 1.242655382329E+00 -4.522464866945E+00 7.085207492698E-03 3.921008035489E+00 1.231271697935E+00 1.128519283627E+00 -1.754720280835E+00 6.961239969994E+00
 3.492133217928E+00 -1.378754000779E-01 -2.023915672255E+00 -4.214261958459E-01 2.248040210500E+00 -6.096857602500E-02 -1.412841007806E+00 -4.091679998617E-01 4.932062512768E-01 -2.813770606544E+00 1.593491683855E+00 5.461032855095E+00 -4.351557393513E+00 -3.370329051128E+00 -3.604669768071E+00 -1.266143311257E+00 -5.337626691783E+00 -1.982379277278E+00 -2.937739683573E+00 9.851331321361E-02 3.486063456546E+00 6.482837979659E+00 -1.649588869046E+01 -6.955558639885E+00 1.543981050019E+00 3.859178705081E+00 1.037622307124E+00 1.572322687316E+00 -1.035299615855E+00 -1.540870691051E+00 2.272798883686E+00 1.152401269338E+00 -7.533259757045E-02 -3.102695637877E+00 -2.001063770196E-03 2.193666405647E+00 -4.359845330361E-02 3.750364878136E-01 -2.030063533967E+00 1.418490466456E+00 2.362883668247E+00 -2.192935803015E+00 -1.963008698507E+00 -5.878478219330E+00 1.110579966737E+00 -1.573165672669E+00 1.851789410626E+01
 -1.129061835387E+00 5.265204864072E-01 -3.579901311814E+00 5.273558467887E-01 2.471840081476E+00 6.750054393931E-01 -2.639842108809E-01 6.471138549340E-01 7.263346919286E-01 3.312264538629E+00 -1.041230507011E+00 -2.070806289393E+00 -9.587358140714E-01 -2.587069320861E+00 -3.133104536372E+00 -3.985506467349E+00 -6.803331085817E+00 -9.868058307641E-01 -4.565013053273E+00 1.115009425778E+00 -6.080814734836E+00 1.903047541782E+00 -7.502243900510E+00 -1.598846011757E+00 2.159724189433E+00 6.334534398291E-01 1.017347440203E-01 -1.717045446677E+00 -2.323736182692E+00 3.341400271366E-01 -7.415783092370E-01 2.415502182927E+00 1.085763024896E+00 -5.653561384074E-02 1.365562920070E+00 5.330036456179E-01 -1.008653569587E+00 7.131310486027E-01 -7.157584563698E-01 2.132683069838E+00 1.530746754010E+00 1.219033013867E+00 -4.700867790425E-01 3.000231679794E+00 -2.015051299563E+00 1.910521229908E+00 6.777076781782E+00 1.430831228504E+01
 2.573348268216E-01 -5.405833583976E-01 -9.541981183081E-01 -1.716790924591E-01 1.077232280621E+00 1.333756516723E-01 3.007198370889E+00 2.000234868797E+00 1.390014790867E+00 -7.474319476486E-01 -3.488357941236E-01 -2.987304672568E-01 -1.245430284856E+00 -6.812546329065E-01 -6.426155987006E-01 -1.057228520232E+00 1.221351258780E+00 9.651763065988E-01 -7.029405682205E-01 8.194544165928E-01 -1.422815001833E+00 -4.904118601149E+00 5.573995120790E-01 -1.776629501004E+00 8.474814103332E-01 -7.741370815029E-01 -2.499494414299E-01 -1.744568968471E+00 2.475384482412E+00 -2.559763774121E+00 2.411629997750E-01 -4.634751843275E-01 5.245049652674E-01 8.376670936501E-02 1.067523747324E+00 2.539701793751E-01 3.793200098065E-01 -2.327494914005E-01 -8.565351018083E-01 1.353241954699E+00 -6.940030194675E-01 -3.712657221545E-01 -1.823714753457E-01 1.992401283328E+00 5.144649471439E-01 1.066960031461E-01 -1.575762859500E+00 1.484407707526E+00 5.139346560224E+00
 1.488009182272E-01 4.930686139950E-01 7.954500129864E-02 -2.661374348843E-01 -1.001729506130E+00 -5.426912740038E-01 -1.416289000304E+00 -5.681297036443E-01 -1.032222198176E+00 -8.132641922115E-01 -1.033657313301E-01 1.763182132972E+00 1.257331121081E+00 1.153469146820E+00 1.514092615941E+00 8.374001743049E-01 -2.508267972401E+00 -1.368063848047E+00 6.028744072943E-01 -5.247697912354E-01 -7.481378124248E-01 2.327807006467E+00 1.050514828347E-01 2.616759726672E+00 -1.210335005026E+00 1.770407141477E+00 5.437542932023E-02 1.239004973132E+00 -6.344916826004E+00 4.256356982553E+00 -3.031110242456E-01 -4.798314315236E-01 -6.053880886766E-01 7.583646505612E-01 -7.517839637753E-01 -7.464670142000E-01 -8.903025380244E-02 -1.075774093786E+00 2.820617804854E+00 -9.328144452133E-01 1.912674485803E+00 1.151426307389E+00 8.120117399966E-01 -9.952928096081E-01 -2.125891338153E+00 5.858786281088E-01 1.946568590447E-01 -1.301468437593E-01 -3.836546939416E+00 7.028779216141E+00
 1.068787248649E+00 -1.035143379115E+00 -9.256825171855E-01 4.778288310818E-01 5.085768153102E-01 6.179668999691E-01 1.299911248507E+00 1.006837212304E+00 -6.712042216474E-01 -6.496090127189E-01 6.616906727049E-01 1.599059041939E+00 -2.044167023707E+00 -1.473616906465E+00 -9.826297378071E-01 -8.790019283872E-01 -1.967147059877E-01 -6.778240711412E-01 -1.084134440136E+00 9.268721493602E-01 1.597866134943E-01 -1.068459915505E-01 -2.152717848954E+00 -2.636963010049E+00 8.783625560120E-01 8.250746912912E-01 1.854146588348E-01 -1.120153858776E+00 3.652265460604E+00 -2.670125709487E+00 -1.205207244264E-01 1.355721109511E+00 -3.061446265077E-02 -6.512206449442E-01 2.012766505659E-01 8.378831641223E-01 -2.211242605577E-01 -8.149393931848E-01 -1.161383084963E+00 5.995514443678E-01 -9.025834184406E-01 -4.056882101420E-01 5.528039275853E-02 4.146962661982E-01 1.200268333737E+00 -1.748462169932E-01 2.240586015671E+00 1.089444648321E+00 2.239616994938E+00 -3.305845134747E+00 4.008231779089E+00
 2.453634025374E+00 -9.444919777313E-01 3.626736585090E-01 4.654565167340E-01 7.842221041845E-01 9.125655450771E-02 -4.790370973124E+00 -4.440698450472E+00 5.963714151669E-01 -1.625977789945E+00 -1.729470465900E+00 5.434876540120E+00 -4.053687724429E+00 -1.846783109779E+00 3.920043234415E-01 1.491551876725E+00 7.400303003774E-02 -3.973179437050E+00 3.895998966525E-01 -6.464122836165E-01 5.198663149192E-01 1.965653234526E+00 -5.794449044048E+00 -1.121820066829E+00 5.607474992212E-01 -9.811524139792E-01 1.286755073806E+00 2.462598844499E+00 -1.015085057497E+00 -3.819193733729E-02 -1.469998523388E+00 7.128526211408E+00 -4.333433143719E+00 -2.679905060481E+00 1.506274351304E-01 3.934130436854E+00 -7.295016181266E-01 2.011872858163E+00 -3.773243364715E+00 2.510342825815E+00 -9.394499486718E-01 1.562885148252E+00 -3.815246323939E+00 -1.537579745656E-02 1.782721992359E-01 -1.187629941219E+00 4.858339396628E+00 1.826766727377E+00 -1.681400718034E+00 1.168174091659E+00 -5.786367723398E-02 9.787881019111E+00
 5.692691785807E-01 1.092167989600E+00 3.246547970981E+00 7.895434690781E-01 8.552801379334E-01 -2.009300491708E-01 -8.080112991102E+00 -3.468464112535E+00 -5.222492177907E-01 -6.839380619633E-01 1.414810021605E+00 -4.023952273613E-01 -1.579293780605E+00 -2.265781816082E+00 -4.169484207885E-01 1.686252773633E+00 -3.335331017704E-01 -3.126619199712E+00 1.161493103939E+00 -1.013852109582E+00 1.032523995376E+00 2.485506964640E+00 -8.911088399660E-01 3.760646583751E-01 7.201546087633E-01 -1.131407494148E+00 -1.123765054420E+00 1.954267350549E+00 -3.292549189729E+00 7.723940765130E-02 4.068196346918E+00 -4.774118682716E+00 2.304928369583E+00 -2.238807759103E-01 9.704751836518E-01 1.166971667292E+00 -6.178148591164E-01 1.060736319976E+00 -2.495006892952E+00 -1.234859042545E+00 -1.028014161811E+00 1.684743219933E+00 -1.172905690209E+00 1.816906669278E-01 2.172389642944E+00 4.091734837802E-02 2.936198329774E+00 -1.138813586270E-01 -2.837528368357E+00 2.155126317794E+00 -2.034821393466E+00 3.366404084823E+00 8.649620481774E+00
 -1.854526269547E+00 -2.127258931781E-01 -7.653214076803E-01 1.167012673433E+00 1.492987206596E+00 1.058199311792E+00 -7.025594985107E-01 3.703898038170E-01 -2.164477644549E-01 3.396610370636E+00 -1.046201790425E+00 -5.920004131253E+00 -1.601897569965E+00 5.177710423891E-01 1.158677551531E+00 4.695871270312E-01 4.765897257945E-02 -1.550347963687E-01 -2.680131642031E-01 1.732393821501E+00 5.278196627185E-01 -1.079478901688E+00 -2.150192174772E+00 -3.033946835987E+00 9.243172095142E-01 -7.717924222129E-01 8.416954944963E-01 -1.980441692271E+00 2.119569229424E+00 -2.066743183830E+00 4.863605484916E-01 4.819087556246E-01 1.411412859716E+00 3.383534546698E-02 5.889249512907E-01 -2.961538520691E-01 -7.906266366064E-01 1.714774957025E+00 -1.318134294091E+00 8.819182210711E-01 -1.310952670615E+00 1.027981519744E-02 -2.466082153781E-01 1.675029547842E+00 -8.963545398082E-03 -1.633254636827E+00 -1.119886542439E+00 1.659564464558E+00 2.094765943980E+00 -3.653040057104E+00 1.325465411365E+00 -1.798307158798E-01 -3.746712616801E-01 6.917878968460E+00