#BIOSYM hessian 1
@Type: Hessian Update
@Units
 distance: 	A
 energy: 	Kcal/Mol
#header
@natom 19

#label
L1      L2      L3      L4      L5      L6      L7      L8      L9      L10     L11     L12     L13     L14     L15     L16     L17     L18     L19

#element
Li Li Li Li Li Li Li Li Li Li Li Li Li Li Li Li Li Li Li

#matrix
57
 2.364031765952E+01
 1.370470984699E+00 8.349894483700E+00
 4.540786601376E+00 -3.648414179676E+00 8.515715163439E+00
 -5.778771539174E-02 1.911377182280E-01 -1.142062632798E+00 1.496008793390E+01
 4.915556144582E-01 9.069146694038E-02 5.564234663857E-01 -2.508203314594E+00 9.620173687808E+00
 2.395767036743E-01 -1.089187345447E-01 -1.298149224514E+00 1.040226981731E-01 -3.037129345402E+00 2.242055351095E+01
 -1.270444019255E+00 -1.015036229920E+00 9.462025677944E-01 -6.820648571385E-02 8.061693871468E-01 6.857537253145E-01 1.764727273061E+01
 -8.156327913876E-01 9.289328546388E-01 -2.263235632950E-01 2.676082647428E+00 4.939531294590E-01 2.383966677078E+00 -5.377508784191E+00 2.442706118498E+01
 -2.135158361028E+00 6.436898276501E-01 5.289102754917E-01 -2.743953061186E-01 -1.355992934511E+00 2.002779977286E-01 -3.717774123984E+00 -5.556000122946E+00 2.494971483831E+01
 2.439198081756E-01 2.610234287966E+00 -1.794887252069E+00 -5.941318666794E-02 -1.186076004752E+00 5.371006660888E-01 1.715831141816E+00 -8.023887422762E-01 -9.880650330971E-02 3.173263184769E+01
 5.559639451537E-01 -7.307018526020E-01 3.493657452284E-02 -1.447352604519E-01 7.019192710598E-01 6.215192553621E-01 1.899203859025E-01 -8.702349404499E-01 1.311896341725E+00 -2.044883638445E+00 2.818786125349E+01
 -1.478410435647E+00 -9.610326977816E-01 7.427473910967E-03 -3.682947106722E-01 1.624933386897E+00 2.189110329749E-01 -9.403557151041E-01 3.246627269523E-01 7.677202364301E-01 -5.512746663636E+00 -5.416002713800E+00 2.263501318301E+01
 9.112273301830E-01 -9.574627520814E-01 -1.271946977032E-01 -1.085890880552E+00 1.062592001343E+00 -4.608158437208E-01 -3.065013013815E+00 5.070225980566E+00 -2.602512441187E+00 -5.552125895643E+00 -2.394245430722E+00 -1.771711981897E+00 2.057991357938E+01
 -1.850350689485E-01 -1.428748917059E+00 9.970890462750E-01 8.273979912486E-01 -4.187329810052E-01 3.295132037824E-01 1.479044324149E+00 -7.574169858901E+00 3.672473810070E+00 -5.931975622315E+00 -2.625099605784E+00 -1.220547693239E+00 -3.697361130470E+00 1.674260946382E+01
 1.948151858005E-01 5.288518172928E-01 -4.313276877352E-01 -5.619498162074E-01 1.911482453161E-01 4.664465430582E-02 -1.796092623016E+00 3.896985205430E+00 -1.382091144086E+00 1.863739315204E-01 -1.192833095858E+00 5.863696087064E-01 7.110695069881E+00 -2.616650087975E-01 2.358650316911E+01
 -5.738636664878E+00 3.004592259305E+00 1.894139435434E+00 -3.234754563450E+00 -2.393997559055E+00 3.539794820687E+00 -2.747455188421E-01 -1.003914828499E+00 4.546668000691E+00 -1.050455193013E+00 -5.178159353994E-01 9.130539136904E-01 3.021247714440E-01 1.201215598202E+00 4.101781269024E-01 2.555234935542E+01
 1.326108018829E+00 1.706757181064E+00 9.336239763587E-02 -2.154952467549E+00 -2.609334654122E+00 1.166849643842E+00 -2.684942382591E-01 -4.349865418610E+00 2.422996529729E+00 4.199909692831E-01 1.657957787092E+00 7.945921178571E-01 8.785385843565E-01 9.779835488618E-01 -1.580239185042E+00 -3.438700668603E+00 2.573135535692E+01
 6.263270779941E-01 -4.729828615596E-01 1.353074175148E+00 6.256722952646E+00 2.023101487672E+00 -2.133382124363E+00 4.494230407086E-01 2.181777550340E+00 -3.351856515847E+00 -1.048490765762E+00 -4.553743243096E-01 -7.653382579103E-01 -8.029936436881E-01 -6.648436411197E-01 -5.074834703687E-01 -2.320631379724E+00 -6.346237692634E+00 2.069621143649E+01
 5.143705931693E-01 8.172236859968E-01 2.492150813729E-01 -3.943030885615E+00 2.634753637547E+00 -2.340923289899E+00 1.433464674602E-01 4.117007087751E-01 -1.944666102804E+00 2.140561187376E+00 5.677150118425E-01 -1.274262884198E+00 -1.671216502039E-01 -4.589086583937E-02 -7.089419176812E-01 -7.245074757831E+00 5.016323645576E+00 -1.977418019762E+00 2.207428037488E+01
 3.446349950581E-01 -7.482185997300E-01 -6.845457593618E-01 1.132903589651E+00 -4.721731775781E+00 5.603014479091E+00 1.401903007919E+00 2.611046298476E+00 -4.390049238304E+00 -1.200411616339E+00 1.755542022747E+00 -1.637869953770E-01 -1.512734117972E+00 1.200970949930E+00 -4.474090266792E-01 2.101465005357E+00 1.666672832494E+00 -2.373389927968E+00 1.800994357298E+00 2.353334320518E+01
 2.128690063852E-01 -5.318668537102E-02 2.326287394118E-01 -4.549634196275E+00 5.597669270411E+00 -8.114648103350E+00 -2.997837304156E-01 2.789941617579E-01 -3.368797370484E-01 2.981032485844E-02 -7.457866462522E-01 -1.192671244744E+00 1.316871538890E+00 -1.616535484905E+00 -6.320015639401E-01 -1.386366105186E-01 -3.979646600086E+00 -1.500869866825E+00 6.908384628196E-01 -9.593723744286E+00 2.289586496074E+01
 -4.720457807443E-01 2.861394309613E-01 -5.585702532960E-01 -1.371539240316E-02 4.666341832764E-01 1.908964358099E-02 -6.469059463249E-01 1.154537798470E+00 2.343311392752E+00 -1.016340135002E+01 3.403201323269E+00 4.887310584622E+00 1.169717084055E+00 1.611428238631E-01 1.003171472352E+00 -4.167875649962E-01 9.974605374167E-01 -1.283142798708E+00 -2.416442007834E+00 9.584891507794E-01 -3.590605838578E-01 2.405096432020E+01
 4.697513541146E-01 5.014102020461E-01 5.493468029230E-01 6.348681914243E-01 -7.654973558365E-01 -3.981623305348E-01 1.393955853501E+00 -2.212656387726E+00 -4.682191791008E-01 -2.453096633871E+00 -5.109990281276E-01 -1.634949518610E+00 9.607036387639E-01 -3.352814010037E+00 -3.777908800143E+00 -1.244954927659E+00 -1.222190569988E+00 5.702943689338E-01 2.423673844741E+00 -3.312917627795E+00 3.133537618113E+00 -4.714676700767E+00 2.529496894030E+01
 6.589442657798E-01 4.446053009542E-01 -6.643698099188E-01 7.823264807986E-01 5.909464168800E-02 -4.376788347894E-01 1.171390036288E+00 -8.934193398889E-01 -1.088782212431E+00 6.229943388694E+00 -1.139153402432E+00 -3.687967167564E+00 8.124596574214E-01 -5.510612434827E+00 -3.740719368581E+00 -2.120744912141E+00 3.088518341886E+00 -5.268724223907E-01 -1.247432345131E+00 3.391636176794E+00 -6.199487213582E+00 -8.015835120351E-01 -6.888947266105E-01 1.608925628112E+01
 -1.834297257591E+00 9.274352726595E-01 -6.476142560139E-01 1.816501956027E+00 3.864981883790E-01 -2.910667702779E+00 9.744761158014E-01 1.147580362633E+00 -4.917193943522E-02 7.385371752344E+00 -2.099939501777E+00 -1.997482810341E+00 -3.172327912239E-01 -6.437640739229E-01 -2.600061548020E-01 -1.247962794243E+00 -4.843513538722E+00 1.767214172667E+00 6.116620163483E+00 4.811501715262E+00 2.781757337983E+00 -1.117499113152E+00 -2.309052028773E+00 2.569747161530E+00 2.358548174839E+01
 8.538397064080E-01 -5.122793531904E-01 5.745090318884E-01 7.792888774501E-01 4.250521723103E-01 -2.445795065752E+00 -2.032942300888E+00 -3.027790494782E+00 3.699084965227E+00 -4.970796222310E+00 -7.277567289256E-02 2.008374914155E+00 3.708573666642E-01 1.544608265089E+00 5.299308807338E-01 -9.359982596485E-01 1.637744204786E+00 5.119386668569E-01 7.299857701909E-01 -8.931588658916E-01 -3.990057807922E-01 5.654534391552E-01 3.002676072437E+00 1.180918037846E-01 -4.473746499570E+00 1.155945987447E+01
 1.286461337066E+00 -1.956161831107E+00 -8.840925747591E-01 -1.422572225866E+00 -2.666490151845E+00 -1.142243022639E+01 -3.474740038708E+00 5.740863506336E-01 -6.833531316726E+00 -1.661430548493E+00 3.219696440464E-02 -1.925274787456E+00 1.982547218935E+00 -1.240807093267E+00 2.128749671652E+00 -5.875843103715E+00 6.656339055638E-01 2.244638918338E+00 -2.233710438703E+00 1.716801412345E+00 4.991596661724E+00 -1.063532714229E+00 3.359931480398E-01 -6.159222594769E-02 2.862228527177E+00 -1.749093683999E-01 2.251490796946E+01
 1.431293144691E-01 5.153144458326E-01 7.157180520283E-01 -6.064721873842E-01 -1.788427703178E+00 2.626035396997E-01 -1.536800403011E+00 -4.000106591471E+00 3.071218086224E+00 -3.289075692189E+00 1.575901585537E+00 1.688363681877E+00 -6.592928839902E+00 4.844906435730E+00 -2.251422572793E+00 1.318284315409E+00 1.169135406839E+00 -3.667637821718E-01 -1.847780888973E+00 -9.251193114752E-01 1.362917599505E+00 6.885952756946E-01 -6.563318200488E-01 -5.648500268123E-01 -1.705903710519E+00 2.903265375831E+00 -5.389192308214E-01 1.548781772307E+01
 3.543632902720E-01 -1.610864667937E-01 -7.083899815697E-01 -5.232213839064E-01 -2.084335206587E+00 -3.443192033876E-01 -2.120653848798E+00 -2.299595038032E+00 2.076961827503E+00 1.268116922842E+00 -8.959615958987E+00 -2.123797056546E+00 3.713785489480E+00 9.312458325653E-01 6.444171109102E-01 1.746288372447E-01 -6.988143875388E-01 -5.221491067999E-01 -1.516434963099E+00 -2.251381171975E+00 -1.876753692710E+00 1.234676338221E+00 -1.181115797173E+00 2.199731262529E-01 2.694101950844E+00 1.429002062690E+00 2.443550070904E+00 -2.684958965751E+00 1.520712956365E+01
 -1.718716656962E+00 -1.794017659362E-01 8.215982514449E-01 1.474286090324E+00 -3.816928622171E-02 -2.000642219408E+00 2.226439691677E+00 4.468121880128E+00 1.369166319511E-02 7.366379510449E-01 -2.034405622906E+00 -2.071550682660E+00 2.694430578054E-01 -1.407621141019E+00 1.548400462209E+00 1.478624243709E+00 -7.022403127993E+00 8.801520382585E-01 7.540743745039E-01 1.494560167098E+00 -1.175565412819E+00 -2.914656235408E-01 -6.018821685483E-02 -6.096850718718E-01 -2.110496754557E+00 2.300039621413E-02 7.674469868301E-01 -1.763289746334E+00 3.729672944758E+00 1.531247587592E+01
 2.754073705625E-01 2.170517478860E+00 -2.710422727643E+00 -1.888836097774E-01 5.512231450688E-01 1.820300785274E-01 -1.154033105109E+00 1.480862001855E+00 6.825481372278E-01 -2.098770135140E+00 1.928093008785E+00 -1.918398244595E+00 -1.429962343511E+00 -1.716375253055E+00 2.234733566960E+00 -3.665968120926E+00 1.140741941152E+00 4.302720905250E+00 2.642012934599E+00 7.519910295858E-01 -1.038581107181E-01 -1.623984478433E-01 -1.067941949209E+00 -2.201274919797E-01 6.932534693633E-01 1.674317390370E+00 3.160463278176E-01 -1.600387090367E-01 -4.574341740499E-02 -4.764558264190E+00 2.112566159171E+01
 3.679064377167E+00 -4.579089408054E+00 2.316558844597E+00 -4.371740121995E-01 5.697642581611E-01 3.580730908002E-01 7.763924503873E-01 -7.324590399537E-01 2.082724003582E+00 2.597586911389E+00 -3.019831752853E+00 1.407370222126E+00 2.945196678414E-02 5.452501195498E-02 -4.737952434438E-01 -1.876416430044E+00 -8.767091676804E-01 2.427064489016E+00 8.898718394653E-01 -4.129779469911E-01 4.375674861007E-01 1.190480850487E+00 -2.509202761081E-01 3.292942583287E-01 1.386653465539E+00 -2.874555932613E-01 5.396587820553E-01 -3.150648654924E-01 -1.059475738981E+00 -3.529936323423E+00 -3.605616357916E+00 1.803483111950E+01
 -1.929843055245E+00 3.813655110985E+00 -2.776185790838E+00 8.956319836500E-01 4.821701639849E-01 -1.281029744541E+00 -2.800129896872E-01 -2.442125708789E-01 3.339932629462E-01 -1.155917015993E+00 2.537807589119E+00 -2.060383741403E+00 -1.150207930887E+00 -7.602172652478E-01 1.389585413867E-01 2.750814081731E+00 3.244535895914E+00 -5.710168872482E+00 1.195958944200E+00 1.693219066241E+00 1.548938227441E-02 -1.843418119220E-01 8.670560990060E-01 6.674338260744E-01 -1.164330762057E+00 9.914898732269E-02 -9.389676785271E-01 -3.300830023938E+00 -2.653263329360E+00 -4.636068543484E+00 1.502787794558E+00 -1.643342685045E+00 1.874570231515E+01
 -1.160316521625E+01 -2.683227001895E+00 -8.280556669199E+00 1.149078032750E+00 -1.090387472736E+00 1.908129625234E-01 -6.055434953838E+00 -1.882232537077E+00 -1.858424075440E+00 -1.586381387823E-01 -1.151259467048E+00 1.889990176109E+00 2.135999785709E+00 1.283476766234E+00 2.195120957046E-01 -7.410795987797E-02 -1.257113371743E+00 1.981540063212E+00 -2.555509635676E-01 -1.225340995275E-01 -2.050754980011E+00 -2.152453060985E+00 -6.737948667889E-01 -1.067324187885E+00 -6.964488439429E+00 -5.015734703053E-01 5.006184329101E+00 -2.269423174238E+00 -2.908853956935E-01 2.672192699689E+00 4.783418282552E-01 -9.014010141058E-01 -4.291363655036E-01 3.068536501101E+01
 -5.842900311960E+00 -4.794820721132E-01 -1.755721648115E+00 1.165979831218E-01 -5.883238250103E-01 -6.409385416477E-01 1.425397000621E+00 2.810964592154E-01 -2.087481432483E-01 1.127678752404E+00 2.148353079526E+00 -6.319326873029E-01 -5.705509232988E-02 1.050893502789E-01 -2.345582896522E-01 7.562078357397E-01 -7.397341680197E+00 -3.194094367739E+00 -1.785070478362E+00 4.840302269632E-01 2.169502335845E+00 -5.798935661454E-01 1.072114345629E+00 -1.438799810084E+00 -3.123211893149E+00 4.659622123530E-01 -2.339618373279E+00 -2.192537605205E-02 -2.109579166276E+00 4.560665428393E+00 -1.873842061252E+00 -3.799537696055E+00 -1.087209492741E+00 5.575351574993E+00 2.593196018199E+01
 -5.011203285314E+00 -2.787056283237E-01 -3.252657955516E+00 -7.109784002516E-01 -1.449848591111E+00 1.201644289628E+00 -4.198784976467E+00 -3.908899041399E+00 -1.105252455217E+00 -2.060071530360E+00 -1.738401848052E+00 1.406714260924E+00 -3.034896997974E-01 3.161525152453E+00 -7.788204601701E-01 1.090033155579E+00 -4.267124468119E+00 -5.582261031543E+00 2.911528253196E-01 5.449643119950E-01 -3.413090372374E+00 7.879702360563E-01 -9.365723109295E-01 1.764549979675E-01 7.758562925814E+00 -2.973424812811E+00 1.627167498076E+00 -7.725124223521E-01 4.260815247296E+00 -5.202087404428E+00 1.432076501047E+00 1.524431583715E+00 4.201060568112E-01 2.623405309147E+00 -5.074845679697E+00 2.434620332357E+01
 2.649874560116E-02 -1.516448600379E+00 -2.113828198334E-01 2.143974221953E-01 3.980686987157E-01 -9.497734923042E-01 8.073461643573E-01 -2.683117833980E+00 2.348934168231E+00 -9.646661195357E-01 7.889700208232E-02 1.021080697605E+00 -1.149768885979E+00 8.456237835074E-01 -2.040304642482E+00 -1.255043296990E+00 1.559674278998E-01 6.917697152169E-01 -3.799366725716E+00 -2.550272515425E+00 2.026134407947E+00 -7.900171286430E+00 3.330041698987E-01 -1.494408940794E+00 -2.217850725363E-01 -1.138312881826E+00 9.729829338913E-01 1.962635590242E+00 -1.646633743457E+00 -2.894435491896E-01 -4.211602119508E+00 2.707213709309E+00 2.561736110176E+00 7.514390295618E-01 1.816333243773E+00 -1.310009559839E+00 1.728272624879E+01
 4.916534226904E-01 -7.881633704439E-01 -7.308047355710E-01 1.270645558612E+00 1.902422092059E+00 -7.468043820245E-01 -6.498390375577E-01 -1.663664176508E+00 2.141131335836E+00 5.297872428796E-01 -5.192868078541E-01 5.084328914054E-01 6.947632014882E-01 -7.427124916930E-01 1.902460888853E+00 -9.416211474151E-01 -1.097214021182E+01 4.304693517432E+00 -4.042721080472E+00 -3.525411178115E+00 3.995176236192E+00 -2.216067253297E-01 -6.229871965658E-01 -3.761066563951E-01 2.159575507230E+00 2.928604754378E+00 3.330688116526E-02 2.160288682713E-01 4.144947248016E-01 1.082298168395E+00 8.605788636611E-01 -5.354901128795E+00 -3.429105244448E+00 1.219921084415E+00 1.227585920643E+00 -1.828626884460E-01 8.581879041722E-01 2.300598675087E+01
 7.890430190871E-01 6.206278683515E-01 -1.380902845861E-01 -1.213512695887E+00 -1.933433300711E+00 -2.727255310394E-01 1.122231048967E+00 -1.961015118873E+00 -6.109520276090E-01 -2.403608740787E+00 -1.501966331973E+00 -7.112593784682E+00 2.144116131778E-01 8.974524900294E-01 -1.312259928873E+00 -1.369767712226E+00 3.654164640335E+00 -7.502516202190E-02 3.891216375241E+00 2.816388003152E+00 -1.723734390423E+00 -4.108009749114E+00 1.301468036874E+00 -6.138134404204E-01 3.602672257245E-01 1.040216335026E+00 4.064747237192E-01 -4.785664427742E-01 -2.900336790487E+00 -8.820171073579E-01 3.927333937420E+00 -4.019640026107E+00 -3.032101227193E+00 -2.904072122964E-01 -7.644764908316E-01 -6.619529668891E-01 -2.996760209543E-02 1.663481860490E+00 1.816702538902E+01
 -3.094691809083E-01 -5.772121973464E-01 1.500878769522E+00 1.690566886259E-01 1.346067789795E+00 -2.053952324283E+00 2.290457142865E-01 4.096992664745E-01 -4.438337996201E+00 -1.391871238404E+01 -4.265611454721E-01 2.579079287125E+00 -3.451206436642E+00 1.333131458542E+00 -7.136023445560E+00 -1.808737847697E+00 -8.445082950836E-01 -5.374194210552E+00 -5.042899949305E+00 -2.965867330641E+00 -6.664692595047E-01 2.118520336310E-01 9.235990426971E+00 -2.145727582365E+00 -9.044044063470E+00 1.809652373542E+00 4.921156818944E+00 -1.783490584172E+00 8.345217210564E-01 3.254256034479E+00 -8.445290371729E+00 -1.409368021873E+00 -5.815865377915E-01 -3.531545083156E+00 3.584173367089E+00 1.731178532257E+00 9.921123153446E-01 -1.134837381305E+00 -8.037134260052E-01 4.298801358251E+01
 -6.561039447227E-01 1.076594284794E+00 -1.044055274128E+00 -1.768827017946E+00 1.598210496698E+00 -2.188102706723E+00 2.048343691134E+00 1.392621591451E+00 -3.586861502018E+00 6.682746962618E+00 -1.195168033968E+01 7.641023640722E+00 -2.059520119685E+00 -1.195822833367E+00 -3.229929620419E+00 1.472293140897E-01 3.592411740471E+00 7.453423120883E-01 -1.636788318392E+00 -6.682082531743E+00 1.252987594429E+00 -1.128733659364E+00 -6.491662482605E+00 1.030386804681E+00 -6.519889148510E-01 -9.244989425425E+00 1.812979910159E-01 -5.853816669546E-01 -3.230645172301E-01 -2.342325086610E+00 1.158964820704E+00 1.838276211947E+00 9.426230508179E-01 4.016382281769E+00 -1.069156969681E+01 5.402106370771E+00 2.711457926786E+00 -3.567919627423E+00 -1.045208527072E+00 -1.140913735913E+01 3.181728115575E+01
 1.221408998850E+00 9.351082967552E-01 -3.797320172695E-01 6.034746933122E-01 2.163895393063E+00 1.906050618451E+00 -4.755697280604E-01 -1.829439207154E+00 -2.363606512710E-01 7.305634874470E+00 8.684413203073E+00 -6.505165972621E+00 -6.960495531042E+00 6.058651273773E-01 -9.064589640402E+00 -5.082510393721E+00 4.398252144244E+00 -4.517249981039E+00 3.888561889140E+00 4.456456111953E+00 -2.865521441413E+00 -1.261649163362E+00 2.302399024742E+00 1.724417827353E+00 -3.587830687533E-01 -8.445024553923E-01 -7.923433720242E+00 1.722912500686E+00 -1.996656774766E+00 -2.528157316073E+00 -2.134986932426E+00 2.236722147856E+00 1.174676143211E+00 -3.165466049609E+00 -1.287392212276E-01 -1.418021943595E+00 -3.115007896976E+00 -8.474908292735E+00 -1.638974428872E+00 7.975574864246E+00 -8.964102179218E+00 3.160653839349E+01
 9.547942770394E-01 -1.255314629997E-01 -2.670946334826E-03 3.051190780550E-01 6.161072650419E-01 1.483685621460E+00 -3.782976952338E+00 2.894157997390E+00 2.828461642631E+00 -9.056117660583E-01 4.578635243654E-02 1.162735360137E+00 -1.190160407780E+00 7.792283565407E-01 3.230158229070E+00 -1.225614217319E+00 -1.480482367776E+00 4.028534036875E-01 -2.969491788590E+00 3.114486462561E-01 1.380714240839E-02 -1.929981264271E-01 -3.328307244436E+00 2.835735237183E-01 -3.438258610141E+00 4.536358422066E-01 -1.302581415548E+00 1.083441143534E+00 -6.212721549527E-01 -1.764658346384E-01 -1.280463251411E+00 -2.476011933740E+00 8.019090983555E-01 4.178180013959E-01 3.467697220263E+00 -3.399736721461E+00 -1.763735901799E+00 2.271673026887E-01 -8.993019982956E-02 -3.530237641602E+00 -3.679032179881E-01 -1.964628779224E+00 1.986433152335E+01
 -2.246380331656E-02 -5.836495076970E-01 -3.618858471085E-01 1.304598306964E+00 2.165937114210E+00 1.724307266421E-01 1.665391994422E+00 -7.701624067055E+00 -4.296714780447E-01 9.124867283079E-02 9.451455430359E-01 1.324498981864E-01 3.465226423891E-01 -3.553892888039E-01 8.793305953750E-01 -2.869972223196E+00 -1.945485026086E+00 2.461611445055E+00 -2.401865028972E-01 -5.694613328964E-01 1.779348826398E+00 -1.271742656976E+00 -1.073949803998E+01 1.517539713700E+00 2.284199154541E+00 -8.421295413363E-01 -7.513743043048E-01 3.830105639876E-01 6.754777422694E-01 -4.120207932106E-01 6.422514066402E-01 -1.733353897729E+00 -7.051140658462E-01 1.373443083953E+00 2.643862560745E+00 7.153893162057E-01 -7.830861063875E-01 -1.389230042168E+00 -8.263320429962E-01 -6.712788698467E+00 -1.438248163720E-01 1.327611481656E-01 2.582068737547E+00 2.288527940867E+01
 2.429693437533E+00 3.685386573030E-01 7.816272749876E-01 -1.190016800054E+00 5.880772289947E-02 1.094231208313E+00 3.001864760554E+00 -2.585715794473E+00 -4.792355881854E+00 6.239002335400E-01 -7.301701114252E-02 1.531683917224E+00 6.786241266650E-01 2.158558596564E+00 -7.452481279571E+00 1.312271925005E+00 1.600651159812E+00 -1.374671569153E+00 -1.085454860840E+00 -2.714254144283E+00 -2.825358618290E+00 -2.299902638258E-02 4.876475966389E-01 -8.012540409606E-01 -2.903836373426E+00 1.403850448703E-01 2.552854587522E+00 2.932833900231E+00 -2.372883992381E-01 -8.810441985151E-02 -1.409070392130E+00 -1.451513300275E+00 -4.932514571571E-01 5.372018124266E-01 3.448562260415E+00 -2.529876154574E+00 -9.515249466044E-01 -7.035213498323E-01 8.132849568980E-01 4.229203357571E+00 3.428779872673E+00 -1.145445529562E+00 -7.490976770657E+00 -2.023766289664E+00 2.143112752359E+01
 5.150494319332E-01 -9.085603859309E-01 1.081602415344E+00 -6.437740501098E+00 -2.405297126095E+00 -3.599612731096E+00 -3.241611065060E-01 -6.909641490198E-01 -5.024173843728E-02 -6.437609988886E-01 -1.036722432752E-01 -8.261253148764E-01 7.336279089111E-01 -1.077692924052E+00 3.118732058151E-01 -1.992659583950E+00 -3.145150529381E-01 8.920246640629E-01 -4.029811203595E+00 -3.252735138987E+00 -1.489935745810E+00 -1.667893549031E+00 1.025844451786E+00 -8.677801074571E-01 -5.844324642998E+00 4.494025676220E-01 4.173034526614E+00 1.009408476329E+00 5.758210552853E-01 -2.912393784476E+00 -4.875241141329E-01 7.346240971696E-01 -1.442498927021E+00 -4.814789749344E-01 -5.079504327884E-01 3.215657571805E-01 -3.265188911198E-01 -1.572455372101E+00 1.446997579937E+00 7.505737848853E-02 2.369059099439E+00 2.001038525773E+00 6.652771796046E-01 1.114078295702E+00 1.231540109634E+00 1.783620539541E+01
 -7.123340565347E-01 7.202911033051E-02 6.196075138931E-02 2.585430725796E-01 -8.462855240690E-01 -7.257065303604E-01 6.683444847740E-01 2.128238699325E-01 -1.155831767881E+00 1.642731904891E-01 -1.232099280540E+00 2.015778499904E-01 2.673319310724E-02 -1.038046189044E+00 1.056744396538E+00 3.397605707506E-01 5.967757175470E-02 1.052150122643E+00 -5.019182974872E+00 -5.324088567730E+00 -5.220443891198E-01 -1.111853985973E-01 8.729318935772E-01 -1.812603841394E-01 -7.119450377620E-01 8.006253479596E-01 7.892812607710E-01 2.641864804685E-01 1.109361564672E-01 -9.641200243937E-01 -3.119106989472E-01 -2.878708639027E-02 -8.314495529069E-01 6.930945045862E-01 -9.640719748326E-01 -4.581953773996E-01 -4.631580776868E-01 -3.473276200067E-01 9.674190417821E-01 2.617209134079E-01 3.041633623631E+00 -4.852933174129E-01 -5.880488790068E-01 -8.691975939712E-01 4.093013544151E+00 5.281891690680E+00 1.060437645846E+01
 -2.387424147248E+00 -3.417269664928E-02 -2.397303283485E-01 -2.540777279902E+00 -6.947946574867E-01 -1.661938602395E-01 1.543193623828E+00 -1.671476839474E+00 -1.123527372367E+00 -1.918621645104E-01 -3.186110973901E-01 -7.787430085805E-01 1.015563910624E+00 3.826491399720E-01 -9.647300332753E-01 9.289711866598E-01 2.292967602437E-01 1.062426560769E-01 1.006483262141E+00 5.040137865021E-01 1.806838349199E+00 3.429481398930E-01 -9.407742869647E-01 7.745333023367E-01 6.964646290733E-01 -4.432611068069E-01 -3.609011960932E+00 -1.125682249044E+00 -2.419319150941E-01 -4.288704850342E-01 3.273126785618E-02 1.656231411737E-04 1.158645943198E-01 7.537756136861E-01 -1.370024323480E+00 1.966390659968E+00 7.114754796189E-01 6.685447409825E-01 -3.515792229195E-01 -1.803906677259E+00 1.616431857377E+00 1.136769931538E-01 2.316787003456E+00 4.810324440241E-01 -8.691090570515E+00 -1.418506376422E+00 4.070792970007E-01 1.745795811555E+01
 -8.180125028534E+00 -4.306289119495E+00 3.818466815551E+00 -3.038206159803E+00 2.966101334860E+00 4.042611038344E+00 1.469815840113E-01 -9.309010627641E-01 7.576614766228E-02 -2.271484974642E+00 1.436430800229E-01 1.247511706111E+00 -1.855504619142E+00 4.843895923726E-01 -1.069999022517E-01 2.805303491760E+00 1.776497122434E+00 -2.661526175066E+00 -1.985119470750E+00 -1.253613899549E+00 1.454805852716E+00 1.194053733192E+00 6.546717271345E-01 -1.705060453562E+00 -8.241141680001E+00 4.093106614956E+00 -4.957282996174E+00 8.794746800755E-01 -3.026528437012E-01 7.921172053380E-01 2.297819132789E-01 -9.180212904526E-01 9.039809390654E-01 2.865037968037E-01 1.653370577743E+00 3.385019286024E-01 8.416289682726E-01 2.270195650407E-01 -1.279478602907E+00 9.751245593993E-01 -6.565046320486E-01 1.710989168090E+00 -4.394588659551E-03 -1.043896299185E+00 -3.498287255702E-01 8.100124770564E-01 -1.307234421292E-02 -1.133397049273E+00 1.986519859733E+01
 -2.120595226937E+00 -3.100585029466E+00 1.406256222913E+00 1.665609032062E+00 -1.742496050109E+00 -1.865334819322E+00 -8.648995831587E-01 2.782154882921E+00 -1.500731854324E+00 1.336834641747E+00 -1.361453767201E+00 -1.035590409241E+00 -1.144494673137E+00 -1.666496561975E+00 1.129942646851E+00 -9.675886231938E-01 -9.619535847888E+00 1.496375991557E+00 2.510389967880E-01 -2.376532281489E-01 3.125599835960E-01 -1.319794026949E+00 6.350777125476E-01 -5.658119760429E-01 5.485059143326E+00 -2.262018600305E+00 3.185538223395E+00 5.910848901983E-01 -1.358241085652E-01 3.372361929667E+00 5.033237007467E-01 1.075856664941E+00 -1.329586494664E+00 1.255355369529E-01 3.400650390837E-02 1.960704507127E+00 8.060291250328E-01 -1.632551516119E+00 1.744451538908E+00 -4.209822701271E-01 -9.720514739398E-01 -1.328086597668E+00 1.906447198302E+00 2.294057229438E+00 -1.347665400800E+00 -1.302722669360E+00 -1.079491669256E+00 1.388073890717E+00 -1.834672104070E+00 2.162811439140E+01
 1.718991991480E+00 8.044210387038E-01 -1.742610758390E+00 2.385414277184E+00 -2.789648282277E+00 -6.680970452111E-01 1.828478355333E+00 1.120754072368E+00 1.272974864881E-02 1.825966845880E+00 5.142426961381E-01 -9.655099653928E-01 1.007520070053E-01 1.680483876950E-02 -9.030268655400E-01 -2.460707790079E-02 3.991705109922E+00 -3.845828223147E-01 -5.026525477122E-01 -2.959773885122E+00 2.437627332516E+00 -1.692704362029E-01 -5.356002672474E-01 -6.454339423731E-01 -4.326592549973E+00 3.251037473273E+00 -1.952684790810E+00 -7.091258522958E-01 7.001529242540E-01 -2.756412835883E-01 -1.118841829459E+00 -2.038458757003E+00 2.183770547612E-02 1.855953921566E+00 5.249417613243E+00 -6.684698037211E+00 8.664000187051E-01 1.343805714885E+00 3.124777414632E-02 -3.072269452790E+00 -3.490284932118E+00 4.161638061044E-01 1.879925340394E-01 -1.036842515212E+00 -4.954261883473E-02 1.814383573220E+00 1.531801857540E+00 -1.521435840235E+00 7.393544427839E-01 -3.983109087332E+00 1.562144965345E+01
 2.008282999724E+00 9.949582869999E-01 8.735226614265E-01 2.612999526404E-01 9.098991904426E-02 -4.743619428019E-01 -5.515564678497E-01 2.547272813088E+00 -2.421436517268E+00 -2.523132535179E+00 -4.201863759395E-01 -3.211918193140E-01 3.354193518307E-01 6.057818554875E-01 -5.575363704689E-01 -8.585133887502E-01 6.573040884197E-01 -5.206626717300E-01 3.838126549362E-01 5.458469877553E-01 1.798280084725E-01 -5.598573092511E-01 6.248942654061E-02 -1.342102765064E-01 2.524256565652E+00 1.578665253496E+00 1.682327327174E+00 -5.187346919771E-01 6.033863353342E-01 -6.212595873505E-01 -8.656967186015E-01 -1.809145645217E+00 9.629161014383E-01 -2.994710840953E+00 -5.507535988202E+00 1.180665672765E+00 -6.103720440269E-02 -1.196880259842E+00 9.746405230546E-01 2.333040873073E+00 1.297690152398E-01 3.243079796960E-01 -2.328232976783E+00 -5.534380228239E-01 -1.325308330493E+00 7.894065466269E-01 1.716737553213E-01 4.984981874581E-01 -2.790289758714E+00 -1.966421877749E+00 -3.021708604365E+00 1.207238235205E+01
 1.728124756057E+00 2.160068784289E-01 2.188980675208E+00 -1.731316126145E+00 -1.538766235932E+00 3.250658640547E-01 1.555950743702E+00 -5.377157342060E+00 -9.948780728476E-01 1.323823887632E+00 -2.375883026898E+00 -2.818131555343E-01 -4.794672325265E-01 -1.183868555013E+00 1.379746432669E+00 3.812922225474E+00 1.418709538810E+00 -8.521004897252E-01 -1.020999897556E+00 -2.043386538140E+00 6.938402161670E-01 3.393184880730E-01 -7.451956809533E-01 7.749503195788E-01 2.715300614281E+00 -6.849411653775E+00 -2.747058887618E+00 8.950732203112E-01 2.141861739609E+00 -1.423413669118E+00 -2.089482579988E+00 -8.431093429420E-01 -1.894055012613E+00 -4.572555882497E+00 -5.806951908172E+00 1.088928611438E+00 1.156226398477E+00 1.628594698145E+00 -1.558942939291E-01 -2.568850251952E-01 6.298166464074E+00 1.736103994253E+00 -1.822303868463E+00 -2.600710269135E-01 -2.917637115633E+00 2.536176366213E-01 1.081767478314E+00 9.628245543781E-01 -2.026395863953E+00 -2.766102429589E+00 -1.846544336877E+00 -2.983560180962E-01 1.903714617509E+01
 -5.056729347438E-02 -2.563071339297E-01 -8.703845745011E-01 8.689231629871E-01 6.765447505801E-01 5.588120886216E-01 -2.591506967146E+00 3.093823384063E+00 -2.278950618635E+00 -2.098193422925E+00 1.166573211364E+00 -6.509074518206E-02 6.789118280663E-01 1.097991298180E+00 -8.077818583096E-01 -9.135206638756E-01 -1.372298417393E+00 4.797375637436E-01 7.943468605069E-01 1.119436265184E+00 -6.878900206043E-01 3.560386643630E-01 -2.479333594225E-01 -6.239079529527E-01 2.698603142743E-01 -2.073325925913E+00 -1.246503513407E+00 -3.453500121846E-04 -1.208708984921E+00 -9.841285412313E-02 -1.751290827802E-01 -7.337821214347E-01 -1.450487026761E-01 9.344726482486E-01 2.466339875979E+00 5.565450049916E-01 -1.219897604460E-01 -2.230918110954E+00 -2.817814542494E-01 1.036102484348E+00 1.338233483392E+00 8.088239041300E-01 -1.824759295138E-02 -7.294774542482E-01 5.520087861320E-01 -9.140851723470E-01 -4.169701461363E-01 2.077873582746E-01 -3.170194568793E+00 -3.725891445042E+00 -3.477217916863E+00 3.263865460666E+00 2.029404979926E+00 8.728369546164E+00