#BIOSYM hessian 1
@Type: Hessian Update
@Units
 distance: 	A
 energy: 	Kcal/Mol
#header
@natom 19

#label
L1      L2      L3      L4      L5      L6      L7      L8      L9      L10     L11     L12     L13     L14     L15     L16     L17     L18     L19

#element
Li Li Li Li Li Li Li Li Li Li Li Li Li Li Li Li Li Li Li

#matrix
57
 1.846884396312E+03
 -3.935108234245E+01 1.693466162367E+03
 2.406907583639E+00 -2.161273998607E+01 5.255522468451E+03
 -1.994780273252E+00 9.362785306316E+00 3.501578764114E+00 4.786671592006E+02
 2.690911389126E+00 -8.512516443774E+00 -7.272088968077E+01 2.930425168982E+01 9.609942766510E+02
 1.278955084600E+00 8.180189739986E-01 1.568497369379E+01 6.191521083675E+01 5.604390584207E+02 7.287662679237E+02
 5.487304442374E+00 -1.298497908246E+01 7.340644511638E+01 3.663157145239E+00 9.266270795305E+00 1.277317744595E+01 6.786909472100E+02
 2.175189267819E+01 6.765149596178E+00 -2.848207334574E+01 -2.261615301405E+01 -3.744996118549E+01 -7.273394882820E+00 4.298695139988E+01 4.266729734758E+02
 -2.498301711514E+01 -2.231587620687E+01 -8.245336575504E-01 -9.700355573181E+00 1.055553514413E+01 2.935076001990E+01 -5.387727445300E+02 -1.739758177881E+02 8.016661446139E+02
 4.768585749826E+00 1.272111191561E+01 -8.503151158123E+01 -5.514212518868E+00 4.777206404694E+00 -1.505513924092E+00 -1.420201509840E+01 -2.074262285614E+01 -3.158195524508E+00 6.418549709958E+02
 -3.644056116512E+01 4.240974234927E+00 -4.044649782007E+01 2.783577910972E+01 -1.718435884853E+01 2.089250525348E+01 2.401951592150E+01 -1.903737341417E+01 -2.323042886478E+01 -7.232416481985E+01 4.484256999644E+02
 5.345469408203E+01 -1.160822559494E+01 1.115872239071E+01 -4.527341127540E+00 1.433352088493E+01 2.034570663697E+01 1.667255210731E+01 -1.344210719580E+01 -5.959637967099E+00 4.890025997121E+02 -2.968889264241E+02 8.389632097601E+02
 -4.239264872111E-01 7.804817925265E+00 2.498469757388E+00 -3.369847400340E+00 -1.763242175082E+01 -2.175451263578E+01 -1.352365432723E+00 -5.196420728884E-01 -8.796265768150E+00 -1.040871147911E+01 -3.557046144425E-01 -2.634264754913E+00 4.666529392429E+02
 3.336388804932E+00 -6.433618369901E+00 5.332577226740E+01 -1.415908608357E+01 -5.705959081154E+00 2.143173126459E+01 1.131905153295E+01 -6.366913256025E+00 1.867676001099E+01 1.213713280423E+00 4.106681982635E+00 1.885715923522E+01 2.960520234523E+01 9.626943694164E+02
 -1.536105761102E+00 -8.325399073772E+00 6.073957848814E+01 1.504453430465E+01 -2.986842315367E+01 -6.637251367252E+01 -2.924837423435E+00 9.453964991859E+00 -3.089802094141E+01 -1.352035810324E+01 -5.612968809758E+00 -2.786958163937E+01 -4.321949982042E+01 -5.412042614481E+02 5.726001898790E+02
 5.581336825319E+00 -9.430314086020E+00 -6.080005248548E+01 9.343582221899E-01 5.719568008941E+00 -5.256480723962E+00 -1.467712516718E+01 4.306710828247E+00 -7.991812946310E+00 6.027099339121E+00 -7.714243378634E+00 -7.946049394677E+00 6.098154754073E+00 5.992146766386E+00 -3.893876051398E+00 6.741604846923E+02
 2.442381946193E+01 8.910257647487E+00 4.472210395856E+01 -4.328597910526E-01 -1.077444454616E+01 -1.388470814529E+01 5.942630871952E+00 -8.422730991017E+00 -1.121009862322E+01 -1.891788758614E+00 2.173571923780E-01 -3.996939781602E-01 -2.288664609719E+01 -4.055938879141E+01 9.221750925623E+00 4.958911345269E+01 4.361167568163E+02
 2.807191689228E+01 2.472741377446E+01 3.253845161666E+01 1.243016395634E+01 -2.550970897488E+01 -4.514762082513E+01 2.454673979833E+00 8.900183622099E+00 -4.150327217808E+01 -1.216353073989E+01 -7.643374672367E+00 -2.742347158588E+01 1.158392157482E+01 -1.011936006172E+01 2.909437383727E+01 5.359617181724E+02 1.651329446224E+02 8.522881968843E+02
 5.958512909135E+00 1.038476142740E+01 6.161081673578E+01 -1.219832034963E+01 7.278668376604E+00 2.385874997970E+01 8.156685332247E+00 -9.257496685669E-01 1.300717383984E+01 -2.175009582780E+00 2.544758935972E+00 1.101969225086E+01 -4.315474788092E+00 3.148111258553E+00 8.927827575669E-03 -2.116859095066E+01 -2.501208750141E+01 -8.251425939498E-01 6.396422399459E+02
 -3.758597632716E+01 2.410510431878E+00 4.422630862852E+01 -1.493311341446E+00 7.444131401762E+00 1.238429698825E+01 -6.088904530177E+00 -1.089829059093E+00 5.292171430322E+00 1.915434968732E+00 -5.168358883396E+00 -5.690213801435E+00 2.432454167730E+01 -2.056996314390E+01 -1.692055242632E+01 2.422391497937E+01 -1.767303363406E+01 2.107768580726E+01 -7.005707659867E+01 4.522698120460E+02
 -5.364136535892E+01 1.275974951005E+01 4.569205901434E+01 3.891363348583E+00 -2.410773158137E+01 -3.715134858932E+01 4.638356313179E+00 -1.979350840203E+00 -2.442637597436E+01 -8.244562299415E+00 4.460706406523E+00 -3.548698872232E+01 3.237319791273E+00 -1.241609227520E+01 1.614227444844E+01 -1.481021030864E+01 1.547559077075E+01 -3.106312074420E+00 -4.894766694155E+02 2.880445158400E+02 8.428232694461E+02
 -1.406186392049E+01 -1.914241743521E+00 -1.381061355705E+01 3.002626615625E+01 7.026027195781E+01 5.358085213503E+01 -3.292555865864E+02 -1.987295023055E+02 4.446059288610E+02 -4.250082754529E+02 1.689881341424E+02 -4.934060475453E+02 -9.432932421148E+00 -2.118131370822E+00 -1.172734719866E+01 -7.190524056011E-01 -7.468023832626E+00 -9.353930662672E+00 5.638810090185E+00 7.808673057103E+00 -1.748432315259E+00 3.991174003924E+03
 -2.994296504890E+00 1.100034569844E+02 -2.877659765097E+02 6.200191535519E+01 -6.691973076955E+02 -4.564518845448E+02 -1.918604145261E+02 -6.954323776874E+01 1.254670830972E+02 1.230211417360E+02 -1.558659800653E+01 4.879383799596E+01 1.143155799652E+01 -5.983598371857E+01 9.875260545077E+01 4.674321024506E+01 2.797815859060E+01 1.187088252740E+02 -6.833697243090E+01 4.236313261002E+00 1.160753997681E+02 3.280170018545E+01 3.136691996256E+03
 1.778967111921E+00 7.114411703611E+01 -1.790954638789E+03 3.482349299917E+00 -2.585773779616E+02 -1.842011743837E+02 2.785906412413E+02 1.833561417016E+02 -3.118265460615E+02 -2.937302546225E+02 1.616412213815E+02 -3.151460524834E+02 -7.135071176557E+00 -1.011522265099E+02 7.893932252317E+01 7.897945916729E+01 2.506401814244E+01 1.164749477071E+02 -8.944412299165E+01 1.837288000452E+01 1.097267114314E+02 2.081030446075E+01 7.774787940252E+01 2.578952774219E+03
 -1.456658107617E+01 -1.043826969348E+01 1.195209471486E+01 -7.008302234093E+00 6.756411990388E-01 6.862514321537E+00 -2.335481844362E+00 -1.021804389463E+01 1.214518774529E+01 8.307797779537E+00 6.005151893454E+00 6.497959625423E+00 2.716087699566E+01 7.205452384712E+01 -4.326619928191E+01 -3.256623411398E+02 -2.023736153605E+02 -4.526038019865E+02 -4.176028242425E+02 1.630838216177E+02 4.877919129297E+02 -1.211710705819E+01 -3.845207653387E+00 -1.397564756024E+01 3.979840063505E+03
 -4.386047144099E+00 8.909984626501E+01 3.133927181295E+02 1.555657494022E+00 -3.353857535090E+01 -5.970119560242E+01 4.558989253510E+01 1.750346802052E+01 -9.119989413271E+01 -5.563861160231E+01 9.648061563304E+00 -8.855698458067E+01 4.862034670937E+01 -6.717878403861E+02 3.986853691472E+02 -2.031087963118E+02 -7.599522295464E+01 -1.505120607200E+02 1.414665368779E+02 -8.478000585009E+00 -6.519189999899E+01 7.461601899364E+00 -2.704684131222E+01 -5.307687208643E+01 2.304953840290E+01 3.147112456456E+03
 -2.690879048547E+00 -5.522709727386E+01 -1.802624332185E+03 1.181625983573E+00 9.258404261822E+01 1.017093470356E+02 -9.218457901832E+01 -3.252018230061E+01 1.329813986257E+02 1.063682991281E+02 -1.919173652971E+01 1.310700643520E+02 -5.526751941043E+00 2.840592042672E+02 -2.045918109602E+02 -2.821707180296E+02 -1.953893683769E+02 -3.423761411492E+02 3.007334472965E+02 -1.635742777286E+02 -3.337266749681E+02 -4.614786131589E+00 5.584379577065E+01 1.803752899120E+01 1.260300666525E+01 -1.134981722475E+02 2.571853492573E+03
 -3.810012563853E+02 -1.264391924280E+02 2.678942954200E+02 -2.504029244634E+01 -6.630661110293E+01 -6.321602991130E+01 6.850727799165E+01 2.872722729854E+01 -5.196062321217E+01 -5.390689771895E+01 1.665958475451E+01 -5.247588104560E+01 -2.061106449068E+02 4.684141344855E+01 -1.208787293522E+02 1.662082783106E+01 7.588180908057E+00 1.221869103892E+02 -4.718950326663E+01 5.059955555585E+01 7.873085566646E+01 -4.276097439480E+01 -9.808774016041E+01 -1.448024147430E+02 -1.391936264593E+03 -7.780491942580E+02 -3.275478917857E+02 1.946734149233E+03
 -2.420282077558E+02 -1.267467512103E+02 2.203273637347E+02 3.086483721639E+01 1.121072252383E+00 -6.297829651714E+00 -6.320185850773E+00 -4.800370848000E+00 -1.281916053954E+01 -8.880202073447E+00 9.932763222005E-01 -3.947226596919E+00 1.286338462253E+02 -6.129519173789E+01 9.216945375481E+01 -2.055395062449E+01 -9.819578370722E-01 4.705237443265E+01 -8.010509304820E+01 -2.062252236523E+02 -4.084457738407E+02 2.407225190718E+01 -5.853785939059E+01 -7.084460044426E+01 -6.433329992768E+02 -3.388581718750E+02 -2.399326784130E+02 3.989414121222E+02 1.713940700992E+03
 2.618272590401E+02 1.142369291775E+02 -2.534442783686E+02 2.456249471097E+01 3.839638673424E+01 5.021758896451E+01 -2.677905949341E+01 -7.480501454743E+00 1.797613421219E+00 1.347772397233E+01 -1.928023306819E+00 2.213586416436E+01 -1.655779959621E+02 1.134480873762E+02 -1.707794492845E+02 -9.972822280490E+01 -1.218709845897E+01 -3.935511381975E+01 -7.438988959548E+01 -2.238885008239E+02 -4.017862043449E+02 3.352984975598E+01 -2.678589995294E+01 5.398027539708E+01 -5.328642479926E+02 -1.767589234536E+02 -2.118080356432E+02 6.614525706413E+01 1.141814871957E+03 1.946861455583E+03
 -4.561066433288E+02 9.127478359425E+01 -2.999825753081E+02 2.066238080850E+00 6.963228967034E+01 6.962511832533E+01 -6.362118011784E+01 -1.671816856151E+01 4.799640454591E+01 6.416979467834E+01 -2.572053920989E+01 5.168275598283E+01 -2.429360212968E+02 -1.312562008652E+02 1.818890504197E+02 -7.013364497990E+01 -8.320156062519E+00 -2.216834491808E+01 6.566808787644E+00 -2.847736242935E+01 -1.241593755932E+02 -3.772356314008E+01 9.774745083197E+01 1.703159746984E+02 -1.563735698956E+03 6.578665670831E+02 3.224328248921E+02 2.650874097453E+02 -2.379147830480E+01 -3.503735853097E+01 2.116856305025E+03
 2.260888882282E+02 -1.043219656163E+02 1.738660421897E+02 -2.539351901046E+01 3.477513673678E+01 4.934383361425E+01 -2.499735813737E+01 1.634211958337E+00 1.879015358579E+01 1.794793074550E+01 -2.044861243101E+01 1.324668474087E+01 -2.133527309304E+02 -1.311275715803E+02 1.458337411816E+02 8.842663801263E+01 -7.232058681195E+01 -3.301646291551E+02 4.419663091238E+01 -4.295596261858E+00 1.499404661596E+01 -2.937252001398E+01 -6.649306117712E+01 -4.233621280527E+01 5.131997785444E+02 -1.716849786061E+02 -2.030243465692E+02 6.073645762123E+01 -2.217634196615E+00 -6.690929045098E-01 -3.500414605717E+02 1.622164750188E+03
 -2.743940858707E+02 8.461678333088E+01 -2.640107258971E+02 -2.396244123906E+01 3.611570230803E+01 5.741010955528E+01 -2.607009853854E+01 -4.949519717937E+00 2.847569569388E+01 3.421832362253E+01 -1.295035654508E+01 6.249209593768E+00 2.466099104871E+02 2.135883490392E+02 -2.560901893673E+02 1.054226996348E+02 -1.003228849383E+02 -2.986559618030E+02 1.129509395680E+02 8.544231364075E+00 -3.122101444828E+01 -2.679362655597E+01 -4.733733485856E+01 2.749310176148E+01 5.465735630840E+02 -8.617331975389E+01 -1.691363778227E+02 3.999216437439E+01 -4.893197518998E+00 -1.721606923747E+01 -2.746149304714E+02 1.064982365038E+03 2.111815169421E+03
 3.219496805480E+01 5.918589848730E+01 4.467170526365E+01 -2.024075947407E+00 -1.867919663795E+01 -2.717387562495E+01 9.097233029352E+00 1.166419576895E+01 -4.462170136667E+00 -9.783741035694E+00 -9.751327004279E+00 -1.157288001237E+01 -6.721338474857E+00 -1.911075680433E+01 2.643231992224E+01 -2.435395865791E+02 1.931896730176E+02 -2.675009064806E+02 -1.271990720106E+02 -1.370194919068E+02 1.764094820161E+02 1.105019624727E+01 -3.807040208838E+00 -3.016617628237E+01 -3.231624745431E+01 1.043286712477E+02 -3.188670864818E+00 -3.074075786590E+01 -4.055807201842E+01 -1.441828207270E+01 1.049746586358E+01 4.551090506680E+01 1.725983372674E+01 1.306091450428E+03
 3.286547347750E+01 -5.919412207714E+02 -3.298753530670E+02 4.900397638883E+00 7.325401268511E+01 9.508397410444E+01 -5.694772108120E+01 -3.845875494042E+01 7.634645235888E+01 6.919649765830E+01 -2.909341798157E+01 8.087772497499E+01 1.467335850754E+01 2.855513861718E+01 -1.309125132063E+02 5.954601565642E+01 -1.299316489939E+02 4.773646713006E+01 -1.975075497365E+01 -1.279349471804E+02 2.238164792648E+01 1.029565165596E+00 6.648123142599E+01 1.411337798342E+02 9.474560040601E+01 -1.427351165647E+03 1.967645968673E+02 2.063926707044E+02 1.722455040238E+01 -3.980774704020E+01 -2.135974793352E+02 -1.114831609185E+01 -3.067472245577E+01 -9.779349569098E+01 1.929206563386E+03
 2.020639504390E+01 -3.696509959773E+02 -3.226460683248E+02 -2.962411966750E+00 -7.213102383578E+00 -2.373741464639E+01 1.736903410229E+01 -5.281470940173E+00 -1.923480032967E+01 -1.136026731824E+01 7.245530219323E-01 -1.953894295083E+01 -9.113869919204E+00 3.424827222511E+01 3.369857141257E+00 -2.115302145692E+02 1.743397575018E+02 -2.290331390051E+02 1.120643403097E+02 1.361023029813E+02 -1.249925831920E+02 3.428486527339E+00 1.878747601485E+01 8.341302186383E+01 -2.483548323662E+01 4.140228519129E+02 -1.030983704256E+02 -5.138578033777E+00 -6.616762269222E+00 1.983187109815E+01 4.647082165268E+00 2.062916000762E+01 2.753813913086E+01 1.226744752663E+02 -2.894783798109E+02 1.289169571215E+03
 -3.846333719648E+02 -1.194238293127E+02 -2.639475752419E+02 -2.051878234085E+02 3.551974747662E+01 1.091136562412E+02 2.662553765984E+01 1.166860312472E+01 -1.061118985221E+02 -3.768186417136E+01 4.722297264443E+01 -7.873740328460E+01 -2.730528242188E+01 -7.440186761991E+01 6.093062600511E+01 6.988434973258E+01 2.174280520418E+01 5.689972618167E+01 -5.061797374503E+01 1.290395291426E+01 4.891435194744E+01 -1.383534982476E+03 -7.645066974185E+02 3.204424645874E+02 -4.936875747017E+01 -9.975586053338E+01 1.480266573192E+02 -1.903409895352E+02 2.237081104041E+01 8.281776527078E+01 2.141979431315E+02 3.948166303055E+01 5.718134584584E+01 -3.541456189622E+01 2.148550089372E+02 -5.959273790057E+00 1.968827293705E+03
 -2.416517475123E+02 -1.557210322399E+02 -2.429161411340E+02 1.182985668873E+02 -1.397346605097E+01 -2.934291840076E+01 -5.078605267923E+01 -1.011398928456E+01 -1.875848509890E+01 -7.939781433839E+01 -1.930961425026E+02 4.589291541313E+02 3.145017932268E+01 3.845799912325E+01 -4.645653445860E+01 -3.144705079457E+01 -1.623741099985E+01 -2.791356216256E+01 1.752503232524E+01 1.425074855420E+00 -3.431687724886E+01 -6.535655433523E+02 -3.409671422034E+02 2.561764295326E+02 3.406436032427E+01 -5.734472304244E+01 8.492754092194E+01 5.753983700962E+01 -3.405705345664E+01 -2.204884313722E+00 -2.655119199757E+01 -8.033838486340E+01 -4.964292918769E+01 -3.599292280583E+01 -8.439685847582E+00 1.406592457430E+01 2.999718267935E+02 2.081119684330E+03
 -2.670243860584E+02 -8.153527681968E+01 -2.219176614786E+02 1.637980440435E+02 -1.560053404267E+02 -2.335272683899E+02 1.193649353240E+02 1.995771379766E+01 -5.759932574091E+01 7.451017041842E+01 2.224138442268E+02 -4.456752899140E+02 -2.421406469337E+01 -5.897024390201E+01 8.043311730336E+01 5.219737592078E+01 1.287332204472E+01 4.122696572134E+01 -3.696618986300E+01 -2.728295422820E-02 5.233228551280E+01 5.371086435324E+02 2.236732444085E+02 -2.225783562459E+02 -3.844106888993E+01 1.792539187389E+01 2.511341071373E+01 -1.120337127905E+02 2.561325971555E+01 -2.307364342312E+02 7.718630230048E+01 4.474590760259E+01 5.447964876369E+01 1.209239418000E+01 3.811435460082E+01 -1.077941057027E+01 4.065940475459E+00 -1.439535703149E+03 2.153938074902E+03
 -4.516248350713E+02 7.355448556203E+01 2.899803422124E+02 -2.407089328879E+02 -1.156685826258E+02 -1.805621652293E+02 -6.796687909131E+01 -8.131715474300E+00 2.004191242499E+01 1.439539764541E+01 -3.496717866367E+01 1.228802077146E+02 2.588165475736E+00 8.100838840513E+01 -6.299200343940E+01 -6.617739951694E+01 -9.013289952386E+00 -6.229016163492E+01 6.726719399129E+01 -2.374490799467E+01 -5.128308448252E+01 -1.560721550866E+03 6.332474880146E+02 -3.370141922648E+02 -3.669653734766E+01 9.214069160220E+01 -1.579876387448E+02 2.146293471069E+02 -9.661125460758E-01 -5.611048253962E+01 -2.117416515307E+02 -6.995612113459E+01 -9.735737095466E+01 1.840530574541E+01 -2.215208903076E+02 1.256368250406E+01 3.044020367341E+02 -8.434751871001E+01 8.883904787640E+01 2.109497174136E+03
 2.374551426900E+02 -1.497158888615E+02 -2.187842689554E+02 -2.068482924826E+02 -5.263603837009E+01 -4.746973826621E+01 8.647899582361E+01 -4.748650587247E+01 3.959422843784E+02 8.886133100955E+01 -1.270973708833E+01 2.127477915448E+01 -2.761387808048E+01 8.453214611767E+01 -1.129533951576E+02 -6.417842588988E+01 3.204425166058E+00 -8.697999100748E+01 5.870067486755E+01 -2.913950819930E+01 -5.517950790647E+01 5.450569762194E+02 -2.076223812009E+02 2.317742186197E+02 -2.808286830184E+01 -6.564343592290E+01 6.591174400298E+01 9.180353495245E+01 -9.841055637294E+01 -4.639615126590E+01 -1.445360003686E+02 -1.109537199529E+02 -4.995146806089E+01 4.472605475985E+01 -5.051018024442E+01 2.737583145805E+01 1.719678263170E+02 -5.024049653185E+01 3.412310877435E+01 -3.161093894229E+02 2.188126811939E+03
 2.645839321494E+02 -4.271248162027E+01 -2.187373181992E+02 -2.504244329276E+02 -2.853430851488E+02 -3.750536713260E+02 -1.050677057802E+02 8.512229771732E+01 -3.541090738625E+02 -1.495748516158E+02 -5.471946093223E+00 -6.346165211115E+01 3.183386328216E+01 -7.725591960988E+01 1.222473950350E+02 5.813652226399E+01 6.949600668953E+00 8.775761879564E+01 -6.894822511480E+01 1.281570904525E+01 4.351623967057E+01 -5.846163119446E+02 1.241405445512E+02 -2.159224489681E+02 2.658660998247E+01 3.275276571191E+01 2.458798835876E+01 -9.796956007444E+01 6.883184383339E+01 4.486607142417E+01 1.523785918259E+02 6.754222994744E+01 -2.149920557406E+02 -1.716402669336E+01 5.093094377464E+01 -1.544103752566E+01 -1.245600702850E+02 3.026151405805E+01 -1.936357653698E+01 2.627861037266E+02 -1.549092020649E+03 2.514210078723E+03
 1.969095731287E+01 5.944119806255E+01 -4.121949722624E+01 -8.335680259489E+00 -2.011917672377E+01 -2.520584474798E+01 -2.482844919215E+02 1.990201596918E+02 2.702791369140E+02 -1.295376040367E+02 -1.317490674106E+02 -1.827828657725E+02 -8.324361434300E-01 -1.449510210838E+01 1.811271649379E+01 6.875357633338E+00 6.253891993459E+00 9.802354400154E+00 -1.019634092554E+01 -6.508755514723E+00 1.440616197631E+01 -4.669723069012E+01 1.128850206045E+02 1.332204181142E+01 1.145264574626E+01 -2.006503635866E+00 1.051748214310E+01 -2.940107931983E+01 -3.371636894657E+01 -9.373880249486E+00 1.216774983313E+01 3.138293202097E+01 1.305639273144E+01 -1.043361731321E+00 4.930902059263E+00 -1.979643610152E+00 -2.316445953031E+01 -4.486514244262E+01 8.288739485303E+00 1.121488217059E+01 5.313782264384E+01 -1.073156809301E+01 1.079504476736E+03
 2.932762270822E+01 -6.172836180568E+02 3.341007291846E+02 7.129966516190E+00 3.836189876806E+01 1.775583642959E+02 5.088912023641E+01 -1.304851913669E+02 -3.289494656375E+01 -5.484847561657E+00 -1.239338347717E+02 -7.457065729814E+00 -2.526959196555E+00 9.228526158717E+01 -1.112136410098E+02 -5.992001936564E+01 -4.097040687449E+01 -1.057824693127E+02 7.864714849328E+01 -2.222854850171E+01 -1.001297075119E+02 7.541746703479E+01 -1.430170304167E+03 -1.892902684486E+02 7.511585573949E+00 8.050467071192E+01 -1.518480219519E+02 2.171160316443E+02 1.828087264378E+01 -1.512524104091E+01 -2.254965605296E+02 1.033421513883E+00 -8.714264381458E+00 9.881475835177E+00 -1.887603617095E+02 -4.646577605906E+00 2.136601376460E+02 2.305407320393E+00 2.329428901335E+01 -2.086404557562E+02 -3.154091819530E+01 3.649552069012E+01 -1.238294603030E+02 1.920994264574E+03
 -2.035755359948E+01 3.566093748340E+02 -3.169819271277E+02 5.447849936079E+00 -2.124941800039E+01 2.979691889987E+01 2.021285008037E+02 -1.723284384318E+02 -2.114819395936E+02 -1.021014228340E+02 -1.260277240040E+02 -1.143460496683E+02 -8.078645178347E-01 2.442977214150E+01 -4.669672506689E+01 -2.111678297094E+01 -3.110382533601E+00 -2.970229407337E+01 2.126439087371E+01 -2.783787468912E+00 -2.991707533100E+01 2.617383034315E+01 -4.129048214346E+02 -1.067382050763E+02 -2.394676085904E+00 -2.750956425113E+01 8.065379067052E+01 1.120731278715E+01 -7.113434145432E+00 3.145021958496E+00 -1.589702328666E+01 -1.561007832168E+01 -3.598484231942E+00 9.340611217354E-01 1.586709853291E+01 -2.266309555345E+02 1.297091779046E+01 -5.868637269168E-02 1.192782793870E+01 -1.580706318533E+01 -1.901299607943E+01 2.088927238537E+01 -1.632428974761E+02 2.450329589229E+02 1.207897119304E+03
 -5.756155406046E+01 3.730973717584E+01 -8.008156057391E+00 -1.302863360163E+01 1.033516399441E+01 3.458443936952E+01 -2.757484079227E+00 -1.037183071647E+01 2.542929736851E+01 4.091716665689E+00 2.068762821906E+01 1.603553298008E+01 -1.437370350445E+01 4.150237016289E+00 -2.789551435071E+01 -6.834774051037E+00 -1.618182136471E+01 -2.905018339056E+01 6.246316624967E+00 1.666676191085E+01 -1.796888118383E+01 -4.571839468970E+01 -5.552264192078E+01 -7.164567039940E+01 -5.281537881598E+01 -4.345821097961E+01 7.839539893844E+01 -5.202851968100E+01 -1.800421989754E+01 3.556404530964E+01 9.158442225590E+01 1.135100937136E+01 3.935282818271E+00 -4.573734982606E+02 9.564157578277E+01 -2.872670738915E+02 -5.278475884106E+01 7.160785214960E+00 -5.392502205571E+01 9.294596981376E+01 5.408730093271E+01 -5.153959667170E+01 -3.716162421288E+02 8.630401352953E+01 2.576483202627E+02 9.093586962793E+02
 3.051597410248E+01 8.113490885449E+00 4.181751145994E+00 -6.079561545105E+00 2.478393007121E+01 2.008891919847E+01 -7.157507932553E+00 -1.473131421437E+01 -2.192647494052E-01 4.605350120632E+00 3.641124455640E+00 -2.705290722392E+00 -6.338385818261E+00 2.871864621749E+01 -2.392509000393E+01 -5.100228116925E+00 -1.280430740599E+01 -1.051088006906E+00 3.624063064324E+00 3.336052620913E+00 7.324449183777E+00 6.583946418236E+01 -8.311084021805E+01 -3.938107182024E+01 6.671805896697E+01 -8.971331704337E+01 3.585783518001E+01 -5.581120370943E+00 -2.007825803383E+01 8.239136113946E-01 -3.933870893451E+01 -1.420780058854E+01 -1.266054841959E+01 -1.180870886390E+02 4.560187824795E+01 -5.053597687489E+01 -5.073400063884E+00 -3.119767410492E+01 8.535137305179E+00 -3.897952339018E+01 -2.467474862596E+01 2.130912239299E+01 -9.623534001560E+01 4.249365173012E+01 5.895490117105E+01 7.863725067979E+01 5.312391061272E+01
 -2.000725116453E+00 4.227981017724E+00 -2.870179391109E+01 5.618560209416E+00 -8.598043693582E+00 -4.176350508903E+00 1.044699173610E+01 8.647327675968E+00 -1.134139394800E+01 4.018387297092E+00 1.300129747838E+01 -3.438219284830E+01 -2.126000051909E+00 7.160250847816E-01 5.324688011876E+00 -5.153918877869E+00 -8.931541567963E+00 -3.947838493210E+00 -1.302947916678E+01 -7.950541219726E+00 -3.529872978074E+01 5.332058646078E+00 3.642347862733E+01 3.640914075754E+00 -2.787843758590E+00 -4.889745765159E+01 1.127156035720E+01 -1.401489140115E+01 1.597377308849E+01 1.164705167472E+01 -8.825139344920E-01 -1.917411740301E+00 -1.812124382988E+01 -2.859708008922E+02 4.880368881286E+01 -1.833648952801E+02 8.657209214110E+00 -2.771039270798E+01 2.234824610969E+01 7.156192390017E+00 -6.839839888111E-01 -1.227712549172E+01 2.372442808804E+02 -2.407379531079E+01 -1.537364807615E+02 4.917984897023E+01 -1.865940014959E+00 4.341243047278E+02
 -5.316622431428E+01 -5.491259425021E+01 1.269025260803E+01 4.175881265093E-01 -1.624029254915E+01 -3.660903279731E+01 -1.262982521497E+00 -1.372678702359E+01 -1.605385451049E+01 -6.477676989304E+00 3.608992436458E+00 -1.453525321767E+01 -2.252146676586E+00 -1.141620513719E+01 2.928397470680E+01 2.005990182195E+00 -5.706855316720E+00 2.281123543911E+01 -1.218687487470E+01 1.025376832862E+01 1.903912672755E+01 -4.027824268104E+01 5.311991249814E+01 7.976415803196E+01 -4.612804776662E+01 4.406048819051E+01 -8.489021533154E+01 8.280545255155E+01 2.751516697457E+01 -2.091755057097E+00 -5.498386894972E+01 4.406155843704E+00 -3.816221017434E+01 -4.281770345890E+02 -1.628317366729E+02 2.639419977246E+02 8.149797377255E+01 4.336479614575E+00 2.709592683453E+01 -5.417653998305E+01 -3.260273143551E+01 7.095446228254E+01 -2.628327892052E+02 -1.247754173164E+02 -1.924036832581E+02 1.443749436269E+01 7.987419002301E+01 3.976092321328E+00 7.793691137543E+02
 -3.685223258284E+01 5.344374489234E-01 3.304537170199E+00 1.109613932060E+01 1.943537711472E+01 1.260787827470E+01 -1.069148022671E+01 3.300197281513E+00 -5.515380424820E+00 1.047235502059E+01 -1.045422739070E+01 -2.785918855711E+00 1.195433790476E+01 2.580182343204E+01 -1.690576548636E+01 -1.156700494646E+01 7.320506044709E-02 2.034210817657E+01 8.943862437739E+00 -9.522953472196E+00 1.567632155424E+00 -6.313875483182E+01 -7.355098158698E+01 -2.983225562282E+01 -6.311655907320E+01 -8.350603900618E+01 2.426911332806E+01 4.888234585270E+01 -2.342982933105E+00 -1.461850423603E+01 -4.643620322765E+00 -2.816697833923E+01 -1.160336091750E+00 5.801714850002E+01 3.403747123458E+01 2.456933767023E+00 4.924931069662E+01 -1.732559893383E+01 2.434453195411E+01 -3.133899079838E+00 -4.538134837545E+01 2.237651194030E+01 5.218651001216E+01 2.941689388069E+01 7.435280505923E+00 -9.483051440326E+01 -1.848182181480E+00 -5.020577937658E+00 4.099037311282E+01 5.192345699030E+01
 4.257785850563E+00 4.932320744181E-01 -2.178501672451E+01 -1.996823643310E+00 -5.786552802371E+00 -2.834529203162E-01 -1.093516008706E+00 3.141598294059E+00 -3.295938489969E+01 -7.820415152725E+00 8.383226035434E+00 -3.215901604886E+00 -2.335623464780E+00 -1.462123950993E+00 3.630584952244E+00 1.755856947490E+01 1.518215513971E+01 -6.948049413956E+01 3.608217727418E+00 -1.069480644962E+01 -6.413758987485E+00 -5.895453644208E+00 2.544706727144E+01 -9.319856686106E-01 5.419953849284E+00 -4.249720376988E+01 1.025399509361E+01 -2.866716377826E+00 5.206227581495E+00 -5.957879650490E+00 1.765686689401E+01 2.912751579290E+01 1.789350151021E+01 2.567410377394E+02 8.252186983139E+01 -1.611515041934E+02 -1.785109386830E+01 1.142050309461E+01 -1.834835619168E+01 5.121028365072E+00 -1.682705032149E+01 5.366081247436E+00 -1.702545758935E+02 -3.415229472465E+01 -1.114520522737E+02 -3.089354158419E+00 -1.006151331305E+01 1.552121993068E+01 -1.037779226367E+02 -1.951539829604E+01 3.960947242753E+02
 -2.345092557191E+01 -1.332754488109E+02 -2.240057560762E+01 8.289755515875E+00 7.868366850790E+01 1.352686371603E+02 -4.605451740868E+01 -6.361921267064E+00 3.261850136011E+01 -1.205388215641E+01 2.507468261172E+00 1.098729137255E+02 1.252430597925E+01 6.308754070053E+01 -9.734556302452E+01 -4.813155141847E+01 -5.710309991654E+00 -4.670352462235E+01 3.898016448758E+00 1.473137488140E+00 -1.059322390573E+02 -2.705566587801E+01 -6.783204331308E+01 3.255973255051E+01 -2.749762556663E+01 -2.883475038807E+01 -8.105529204477E+00 -9.568771886160E+01 4.271808958166E+02 4.851980213679E+02 -7.159543687943E+01 -5.014551305276E+01 -3.547765206823E+01 -1.332764802702E+01 -2.353805805370E+01 1.586752131593E+01 -1.618686666949E+02 6.294407166525E+02 -6.232270585695E+02 -9.724127040768E+01 -7.261256877903E+01 2.396246106928E+01 -7.605858090747E+00 4.306136041943E+00 -2.544897410507E+00 4.524702893423E+01 -1.275990128033E+01 -7.733197593526E+00 -2.935720345056E+01 -2.350512777762E+01 1.156913558989E+01 7.870673991370E+02
 -9.923933489636E+01 -9.847072860263E+01 1.579973027586E+01 -4.457266062611E+01 -1.276251702668E+02 -1.272896831659E+02 1.082056882868E+02 1.902696705001E+01 -4.007620930888E+01 3.843988319721E+01 -4.359681963753E+01 -1.562349340955E+02 -4.232350653813E+01 -1.092217176258E+02 1.075588818224E+02 1.047251348757E+02 1.499334188310E+01 6.315754282089E+01 1.321115593158E+01 -3.588963590155E+01 1.460319115995E+02 2.353180935946E+01 -1.327434561864E+02 -1.931354912904E+02 9.107894609251E+00 -1.535722803734E+02 1.763517776845E+02 1.124343196390E+02 -8.749273771079E+02 -9.092649027153E+02 2.412630412815E+02 8.495981429956E+01 8.928216038842E+01 -4.152720942462E-01 2.072769886423E+02 -4.610570675458E+01 2.434568678940E+02 -1.236516678405E+03 1.153810327167E+03 2.837097070838E+02 1.987332854351E+02 -1.518284846187E+02 -2.323977761702E+00 1.898780468864E+02 4.484862867172E+01 -7.517210987691E+01 2.765571089517E+01 8.094777747870E+00 5.845345252173E+01 5.595057846097E+01 -2.301828115356E+01 -8.756176435952E+02 2.375179432565E+03
 -2.123101656423E+00 -2.270255819471E+01 -8.338156285835E+01 9.488956492074E+00 5.552792060174E+01 -3.531909897610E+01 -2.588482126916E+01 9.153222615187E+00 7.537543722842E+00 -7.513652856940E+01 8.893794389365E+01 4.727910707603E+01 5.802410286664E+00 2.314360887110E+00 -6.701753866233E+01 -1.485254049974E+01 -2.076709515473E+01 -3.158039326515E+01 9.008745320130E+01 -8.354670700122E+01 -4.936208201399E+00 -4.679868397436E+01 6.012188848149E+01 3.107422393103E+01 3.948351909099E+01 -6.894162281102E+01 3.700359993993E+01 3.879916459789E+02 -8.171604332219E+02 -8.165399614736E+02 5.445385403889E+00 -1.226851780687E+01 -5.240638329744E+00 -9.284785298058E+00 -2.755192074606E+01 9.187654798445E+00 -4.244576170308E+02 1.083605448354E+03 -1.002359964471E+03 -7.307902673841E+01 -4.067604158966E+01 2.843110143346E+01 1.108768841992E+01 -3.862694361048E+00 -9.811483082500E-02 1.325770674453E+01 -8.791432587105E+00 -3.790422061101E+01 -1.541747025841E+01 -6.772454336550E+00 1.873062592520E+01 1.173173534241E+02 -2.499515048026E+02 1.974956105507E+03