#BIOSYM hessian 1
@Type: Hessian Update
@Units
 distance: 	A
 energy: 	Kcal/Mol
#header
@natom 19

#label
L1      L2      L3      L4      L5      L6      L7      L8      L9      L10     L11     L12     L13     L14     L15     L16     L17     L18     L19

#element
Li Li Li Li Li Li Li Li Li Li Li Li Li Li Li Li Li Li Li

#matrix
57
 7.965422671058E+02
 2.318796832807E+02 1.540654734367E+03
 9.570201203514E+01 -6.595152397088E+02 1.633836856719E+03
 -1.771842429030E+00 -1.742174036322E+01 3.706680414615E+01 9.755834787374E+02
 2.310372170394E+01 1.865655265132E+01 -4.862713002689E+01 1.453202800323E+02 8.074772316330E+02
 -1.593591308198E+01 4.826006523550E+01 -5.013777040299E+01 -1.792892290732E+02 2.876015916872E+02 1.027135228909E+03
 -3.471416142118E+01 5.216228758717E+01 -8.855755009623E+01 1.739733311519E+01 -4.109721160264E+01 -3.792402766193E+01 1.670176013297E+03
 -4.102640852909E+00 -4.094700529753E+01 1.021976764619E+02 6.317024978477E+00 -2.075113417497E-01 4.219053500293E+01 -2.805778992928E+02 7.963506543702E+02
 -3.497698453714E+01 1.218851415609E+02 -2.100920085299E+02 9.251118990217E+00 -6.953720857532E+01 -5.578594544871E+01 6.166382448955E+02 -4.815034003851E+02 1.718768738418E+03
 2.532669799086E+01 -1.426828504383E+01 -3.205402838217E+01 -1.053424202495E+01 1.167525497048E+01 -5.245697197197E+00 -2.769336690531E+01 -1.753873995717E+01 -5.882166834102E+00 8.269801146203E+02
 6.179732949714E+00 -1.331040739092E+02 1.586257199252E+02 -4.048289378586E+00 3.303487382341E+01 3.468315926258E+01 9.012026438434E+01 -7.353296090140E+01 1.873250450138E+02 2.660000337114E+02 1.625080075302E+03
 2.785184544266E+01 -1.566711197223E+02 -4.404474525759E+02 -4.766280627157E+00 5.908476579063E+01 4.391009368257E+01 1.470871196835E+02 -1.143975973416E+02 2.289317985413E+02 -8.661137101965E+01 6.713410462164E+02 1.662745304725E+03
 -1.578814770002E+01 -5.589895784575E+00 1.896844321409E+01 -1.726160689838E+01 -2.856221656937E+01 9.192072454150E+00 2.510782865365E+01 -3.212188459692E+00 4.534301718556E+01 -5.275997941148E+00 -2.217701540669E+01 -4.963743626486E+01 9.417027193269E+02
 1.434938890698E+01 1.792947301205E+01 -5.566629111996E+01 -1.886625343650E+01 1.295690064901E+01 -6.096708095724E+00 -3.817115357386E+01 -6.995072712281E+00 -4.127308501619E+01 2.951532984681E+01 3.015191727277E+01 4.946355867776E+01 1.159892343333E+02 8.111273779092E+02
 8.674218077907E+00 -4.106768948792E+01 4.392853445591E+01 8.647296475773E+00 7.240469790914E+00 -6.259356767193E+02 2.503738546620E+01 -3.229204587003E+01 5.604243164300E+01 2.441587505979E+01 -4.367285855667E+01 -4.849981397653E+01 1.718080089084E+02 -2.879875128005E+02 1.046514752380E+03
 -1.678160338534E+01 7.769844165505E+01 -1.372187640548E+02 2.074532297028E+01 -2.009119350873E+01 -2.969282616329E+01 -9.406258829608E+01 6.979398189527E+01 -1.305314248752E+02 -1.748372496685E+01 4.661168148586E+01 9.360210467711E+01 1.133638728615E+01 -2.945891041784E+01 4.036281664102E+01 1.600392406683E+03
 -1.761809697256E+01 -6.153470183311E+01 1.166245093358E+02 -1.182967537975E+01 -9.595505704046E+00 2.852930802471E+01 8.810844286061E+01 -1.704016007913E+01 1.303161396812E+02 -8.193108175567E+00 -6.108017383249E+01 -1.101041063025E+02 1.964561663252E+01 -4.730987314332E+00 -4.564577662026E+01 -2.836892797255E+02 8.349570163872E+02
 1.713701254420E+01 -1.686006714910E+02 2.204183251119E+02 -3.370444313621E+01 4.386806248729E+01 5.281405572415E+01 1.395695902072E+02 -1.188226925664E+02 -4.163690948254E+02 2.711523440876E+01 -1.312808764311E+02 -2.078959082464E+02 -1.970348323185E+01 5.978845922789E+01 -6.125747384560E+01 -5.387073813037E+02 4.568088884511E+02 1.682216974108E+03
 -2.323011145247E+02 3.670159307219E+01 -1.701498919958E+02 -1.104498861556E+02 1.338999959050E+02 8.316153271690E+01 -8.301183957154E+01 -1.094831431128E+02 6.937572614384E+01 -2.227743548200E+02 3.391048184908E+01 1.649415071326E+02 -8.719787099477E+01 1.365244857476E+02 -8.569382995585E+01 -7.833540769019E+01 -1.059283795726E+02 -6.604890521244E+01 4.075915875688E+03
 -1.948870623983E+01 -4.602371993819E+01 2.177238242660E+01 1.279003775162E+02 -2.476398630202E+02 -1.316481019882E+02 -4.837842285274E+01 -2.120116843804E+02 1.870919421215E+02 -1.163765124257E+01 -3.578929950201E+01 -4.002324822011E+01 1.414528528835E+02 -2.272710474152E+02 1.402916505656E+02 -4.948403129533E+01 -1.961659844987E+02 -1.726462378499E+02 -1.517024179629E+02 4.202731403246E+03
 -1.554782839539E+02 1.600261099895E+01 -1.063226060967E+02 6.954240755638E+01 -1.293817820037E+02 -7.351562590254E+01 6.936928249352E+01 1.402807119424E+02 -1.093552270183E+02 1.534843334521E+02 -1.040647699676E+01 -1.083231983985E+02 -7.074130749002E+01 1.259937225679E+02 -7.639511681124E+01 -7.399399341235E+01 -1.361746600184E+02 -1.000001133425E+02 -1.109659292037E+01 1.679255149969E+00 6.703187461804E+02
 8.025514708667E+00 2.301468974969E+00 -1.023319014055E+01 4.491708421047E-01 1.047480239712E+01 -7.063875030661E-01 -9.978790883837E+00 -5.053203749521E+00 -1.021725446656E+01 -5.648617581393E+01 1.402537717821E+01 -4.274502851045E+01 -2.371433145266E+01 3.423392061667E+01 2.726214116780E+01 -1.683464459465E+01 -3.573645973506E+01 1.854184723009E+01 -4.974258006399E+00 6.367302012534E+00 -3.646066634035E+00 1.949997847995E+02
 -8.099886290995E+00 2.243707324789E-01 8.925495896795E+00 7.394340800406E+00 -8.689130529242E+00 -1.556309540501E+00 1.123912871826E+01 6.503685820336E+00 5.049613994645E+00 -1.146520976755E+01 -6.182593100387E+00 1.269440856582E+01 3.150619789516E+01 -5.956472846178E+01 -4.210847258692E+01 -1.564767278376E+01 -4.452030381196E+01 4.832287190115E+01 -2.254056066247E-01 -8.832037852406E+00 3.394351186954E+00 1.734663024136E+01 1.613558297941E+02
 -1.841605057444E+01 -3.067939601314E+00 1.778296881515E+01 8.905537043877E+00 -1.575113678076E+01 -2.125345123478E+00 2.423137384467E+01 1.363766390886E+01 1.322055662997E+01 -6.700011616495E+01 5.662082398095E-01 -1.725155487929E+01 3.710923105512E+01 -6.636652247968E+01 -3.288722346956E+01 2.573722039617E+01 6.142793325535E+01 -1.795463456108E+01 -1.447903873978E+01 9.978193244610E+00 -6.216069879110E+01 -2.071029120655E+01 2.654092716942E+01 2.151887140730E+02
 -5.932794174189E+01 1.038948590936E+01 4.486599596687E+01 -2.254609814598E+01 2.618398100690E+01 -2.306156011123E+01 -1.799433678120E+01 -2.979189287284E+01 -1.637881953007E+01 2.707638920277E+00 -2.068315913434E-01 1.972907923783E+00 4.414723002267E-01 6.638623075802E+00 -1.991733693701E+00 -5.131096655792E+00 -9.086701944550E-01 8.303883003759E+00 -2.029808933756E+00 6.434816750108E+00 4.813597193987E+00 -1.737772677433E-01 -1.028505550050E+00 -3.634080087185E+00 1.651575535699E+02
 -6.351999774356E+00 -4.388149390765E+00 -1.626890332301E+01 3.143360848957E+01 -5.150389365007E+01 3.831555789747E+01 -1.341075039659E+01 -4.549303205636E+01 -4.667846650369E+01 -3.434829428533E+00 1.379889943792E+00 -1.408230502916E+00 5.804277190277E+00 -8.665190766158E+00 2.792565981852E+00 5.828993865161E+00 4.701777431668E+00 -6.251437255941E+00 5.380706351103E-01 -3.202181952618E+00 -5.664450093611E+00 -8.957866150943E-01 1.091324077914E+00 6.267127881236E+00 1.341914455170E+01 1.464847125637E+02
 6.019132844865E+01 -8.560160919162E+00 -1.913928212261E+01 -3.277170671304E+01 5.881372920400E+01 -2.806510281402E+01 -3.317447787482E+01 -5.629659047045E+01 -1.475716498469E+01 1.917335568685E+01 1.323166961630E+01 1.585972201276E+01 -9.587890339678E+00 1.737094356150E+01 1.071314841010E+00 -1.189365542180E+01 -1.234026395130E+01 1.470756285867E+01 1.267033447068E+01 -1.184632650276E+01 -7.033808478010E+01 6.379962215001E+00 -8.254776568623E+00 -1.609384449208E+01 1.097618609073E+01 -1.975251554611E+01 2.077624934195E+02
 -7.808132733833E+01 -2.614961702579E+01 1.241127801964E+02 -3.780093834141E+02 1.765793806094E+02 2.830630452657E+02 1.294776566207E+02 -1.194398431015E+02 2.448880138359E+02 -1.058108358608E+02 -3.086207617162E+01 -1.153365494239E+02 -4.426378899487E+02 1.676665384950E+02 -2.908224098038E+02 1.241377894965E+02 -1.413033846060E+02 -2.470232811366E+02 -4.352315589077E+02 -1.005890344795E+03 2.113969909550E+01 2.183502327625E+01 -2.663494549220E+01 -5.568603949382E+01 1.247491004882E+01 -2.620858217548E+01 5.627237934374E+01 4.813284960867E+03
 1.997107164356E+02 -2.115358309925E+02 2.039301714249E+02 5.500335209752E+01 2.975279789995E+01 -3.513484153547E+01 -2.100428368062E+01 -1.364055197239E+01 -1.251133154754E+01 2.028707415035E+02 -2.335470097674E+02 -2.079809542090E+02 4.989064067436E+01 2.531411786183E+01 2.994054487344E+01 -1.960324303133E+01 -2.424695831890E+01 7.326260793100E+00 -8.743934932317E+02 -1.644743631799E+03 3.300593372145E+01 4.558891140305E+00 -7.917606137341E+00 -3.010221811881E+01 5.525497821662E+00 -1.155232573584E+01 2.759442713342E+01 5.447980620665E+02 2.921650045794E+03
 -1.113946993579E+02 1.714040222920E+02 -1.714905640674E+02 2.079653984450E+02 -3.652152396649E+01 -1.540065825919E+02 2.378170168154E+01 -2.204151164503E+00 7.777329407296E+00 1.161385432046E+02 -2.137082833243E+02 -2.172608798217E+02 -2.289867068778E+02 4.841988089707E+01 -1.598948567373E+02 8.270976549408E-01 -2.717981926953E+01 -2.314698768403E+01 1.916567677662E+01 2.651189234772E+01 -2.615308715575E+01 1.966548196343E+00 -1.952427794851E+00 -4.250425980264E+01 -7.188433015319E-01 -4.334645685083E+00 -3.923409158502E+01 1.037038942261E+01 1.245551982702E+02 4.034885058755E+03
 -4.026329237402E+01 1.122048106043E+02 -1.652276396535E+02 3.461830185816E+01 -1.881431963921E+02 -1.188656334555E+02 -1.371850621546E+02 2.309871772211E+02 -2.919292173534E+02 -3.330628527840E+01 1.180271166969E+02 1.747542662377E+02 2.882203571055E+01 -2.010793436362E+02 1.326705113439E+02 -1.449075697846E+02 2.502950894994E+02 2.935937401275E+02 -2.173095575791E+03 1.336141822720E+02 -1.792664765039E+01 -1.474699437724E+01 2.658742483998E+01 6.341982510039E+01 -1.085355844482E+01 2.175615017548E+01 -5.624346746702E+01 1.274618838513E+02 -4.677699078260E+01 2.668186365254E+01 3.931524130377E+03
 2.311243094599E+01 1.612629690560E+02 -2.831475268298E+02 -1.000029181860E+02 -3.767927938266E+02 -2.599293623593E+02 -9.962654271376E+01 -2.060946934018E+02 -6.348623389829E+01 5.433597208863E+01 2.028359104687E+02 2.650922952435E+02 -5.162722140202E+01 -3.473464084246E+02 2.912690554727E+02 -6.836346313808E+01 -1.946910079979E+02 5.936101930243E+01 -6.168237041366E+00 1.318799779524E+02 6.622779005710E+00 -1.095267716937E+01 2.865245393491E+00 2.902637481656E+00 -1.183464317404E+00 1.061527095040E+01 -6.401685333660E+00 3.001595232489E+02 -1.408055946003E+01 3.110782390358E+01 1.308053915271E+03 4.612462473962E+03
 -3.057629914974E+00 -2.503508184887E+01 2.367734023083E+01 -1.022764199545E+02 -2.052787160744E+02 -1.377186314222E+02 -8.867659047354E+01 1.739390254916E+02 -1.499853657657E+02 3.053989375968E+01 -2.105643051567E+01 -5.355812653747E+01 7.481616911420E+01 2.407623559717E+02 -1.745292783484E+02 1.065280473261E+02 -2.175631604643E+02 -2.310645325444E+02 -1.045477958621E+01 2.150107939315E+00 -2.337726151031E+01 -7.721264722172E+00 -1.526205750651E+01 -5.890118351076E+01 1.437863103863E+01 -2.645072168932E+00 -3.329140156309E+01 -2.391194164887E+01 1.021596683112E+01 -1.698552309949E+01 -2.303812012889E+02 3.181202955809E+01 4.050187988662E+03
 -1.442911345246E+02 -1.927194613223E+02 -1.664937197779E+02 -7.039781079330E+00 1.179240730989E+01 7.363414680013E+00 -2.728349699711E+02 -1.380742044249E+02 2.796164229195E+02 -1.479619521916E+02 -1.906258619252E+02 1.655316742079E+02 -9.393856936654E+00 2.312667348618E+01 -6.883718367478E-01 -2.942957287392E+02 -1.416335167599E+02 -2.785764686465E+02 -5.491871001927E+02 9.223707323598E+02 1.852939448155E+01 1.759819910519E+01 -2.420053221741E+01 -2.930620442191E+01 1.143606090718E+01 -1.560294412460E+01 2.660100033522E+01 -8.282745774277E+01 1.220937638533E+00 -7.094460126831E+00 3.995898090080E+01 1.630644724899E+02 1.429398077056E+00 2.126498056206E+03
 -1.918942388197E+02 -7.168727946421E+01 -2.192379540428E+02 9.717633164746E+00 -2.369992137016E+01 -1.948044150414E+01 -1.102231460289E+02 6.060301371028E+01 -8.034659686369E+00 -2.078151965806E+02 -1.041088007186E+02 2.444295160335E+02 1.285432616380E+01 -4.190097652604E+01 9.487735174740E+00 -1.271987037654E+02 5.582028051574E+01 -1.235006113874E+01 9.183141631952E+02 -1.578161671346E+03 -3.261566408024E+01 -3.114319972828E+01 4.027721154975E+01 4.922258288636E+01 -2.088845847917E+01 2.711370147973E+01 -4.473010250740E+01 1.635276518436E+02 -3.375737095360E+01 1.077634932509E+01 -9.116152124824E+01 -2.593403860786E+02 4.546967727770E-01 -1.292094447931E+03 3.532287345172E+03
 -1.642066255149E+02 -1.961794870212E+02 -1.657976676500E+02 4.911228723618E+00 2.314112275380E+00 -2.594998590578E+00 2.527518707191E+02 4.285183324497E+01 -1.604280549051E+02 1.733025614920E+02 2.091379452989E+02 -1.703677898242E+02 -3.250013328812E+00 1.486160992978E+00 1.058795765213E+00 -2.580573527284E+02 -4.691516104184E+01 -1.706238019595E+02 1.839183413093E+01 -3.825068932913E+01 2.007399509630E+01 1.238357212446E+01 -1.987144873304E+01 -1.507453595703E+01 -1.255466097118E+01 2.259188361125E+01 -1.407043041491E+01 -5.583529766544E+00 -8.882819465877E-01 5.768107772015E+00 5.963533767539E+00 1.372588382871E+00 1.246299094613E+00 9.226242218703E+00 -1.702046873438E+01 7.186371423104E+02
 5.056643266198E+00 -8.067578230320E+01 1.174552863003E+02 -1.680903902293E+02 -1.382008497638E+02 6.905592930886E+01 -7.535660674559E+01 1.082127648011E+02 1.476823772220E+02 9.573640100253E+00 -7.728028105110E+01 -1.264011129835E+02 -2.672134016663E+01 3.730975394937E+01 -4.614773041515E+01 8.274346641300E+01 -4.439631969487E+01 -1.833952163328E+02 -3.972536115122E+00 1.703070058160E+01 -1.181994243465E+01 -5.588605572665E+00 -2.094393443418E+00 -1.243895086675E+01 -5.274053996076E+01 5.704233145949E+00 -2.729373960381E+01 -1.451785996025E+02 -1.937455186749E+01 -2.122927236718E+01 -5.259619842273E+02 8.220609727084E+01 1.163758571893E+03 -2.549425473124E+01 4.938164913028E+01 2.092763847571E+00 1.010635589563E+03
 8.007063967777E-01 3.497690420986E+01 -7.264428289243E+01 -1.790538937636E+02 -1.592167636247E+02 1.455349576809E+01 1.154713084628E+02 -1.556375934672E+02 -5.817293756780E+01 1.340550475015E+01 4.332089438003E+01 5.679516488509E+01 7.260223359760E+00 9.070191506255E+00 2.283100293789E+01 -4.924716480043E+01 2.169097023855E+01 1.194865191652E+02 8.378130508250E+00 1.779666363072E+01 1.448407093465E-01 1.492472947427E+00 -7.590704855819E+00 -7.746647374675E+00 5.182167738687E+00 -1.232255720005E+00 1.191451566108E+01 6.222057151727E+01 1.634101731422E+00 -2.446140421920E+00 2.510561910694E+01 3.286563810871E+00 -1.008290783503E+02 3.445543185487E+01 -5.956577715049E+01 -7.108002054459E+00 -1.435731280533E+02 7.757123172186E+02
 -3.616610474646E+01 1.195469495778E+02 -1.805661026766E+02 6.841220856316E+01 -6.935361410622E+00 -4.743639585061E+01 -8.439811532531E+01 8.190330473278E+01 -1.730128045449E+02 -3.568660927287E+01 1.108882100742E+02 1.779537715843E+02 6.235093200571E+01 -6.198584004272E+01 5.405972392117E+01 -2.680006357837E+01 5.784798681926E+01 1.809889132713E+02 2.582940534636E+01 1.294421646910E+01 1.508173795035E+01 -2.329158591459E+00 1.039497524178E+01 4.186777471402E+01 -3.213243199997E+01 7.842401348823E+00 -1.409479779004E+01 1.473022507466E+02 -1.897274640929E+01 2.232218913279E+01 8.124927754999E+02 -2.397205700947E+02 -1.665238894728E+03 2.902124631585E+01 -6.281603887476E+01 -8.288238349313E+00 -1.082249558142E+03 4.513591569150E+02 1.954631966680E+03
 -8.903119650189E+00 5.419497174463E+01 -5.221402808251E+01 9.104364594303E+00 -1.518690787072E+01 -2.062046274675E+01 -4.777218587717E+01 4.293404229552E+01 -5.843692375089E+01 -8.243691183074E+00 5.415727390299E+01 5.410373699706E+01 8.204617602260E+00 -1.856472779760E+01 1.852245961337E+01 -4.548601192138E+01 4.360300426210E+01 5.178548089283E+01 -7.258088922935E+00 2.105084916876E+01 -2.953112975544E+00 -8.096658278110E+00 1.113372246075E+01 1.266175710541E+01 -4.956485211400E+00 7.056160637392E+00 -1.137568994497E+01 8.571769970360E+01 -4.204886295801E+00 8.743271160779E+00 -5.392943609151E+01 -1.043005308300E+02 6.966857473097E+00 -5.239621869453E+02 8.865922617765E+02 -2.504173545138E+01 3.603387494583E+01 -2.469920544382E+01 -5.467367146164E+01 5.365738109387E+02
 1.730710535221E+01 -1.000745965838E+02 8.919513462046E+01 -1.571360277765E+01 2.818693100350E+01 3.633443163349E+01 7.428295680512E+01 -7.341547066906E+01 1.048010465073E+02 1.613874996680E+01 -9.816723919040E+01 -9.209017282949E+01 -1.593973095842E+01 3.340282338970E+01 -3.264692663683E+01 7.212830701355E+01 -7.568568438266E+01 -9.408386931530E+01 8.355613542486E+00 -3.084963256458E+01 5.173751357357E+00 1.473534478908E+01 -2.003718457518E+01 -2.308158729153E+01 8.847303748221E+00 -1.284853056685E+01 2.072154255936E+01 -1.463704359845E+02 7.787783870348E+00 -1.420699594505E+01 9.349465909864E+01 1.802908002914E+02 -1.281702505550E+01 9.190518907131E+02 -1.554997435486E+03 4.366427420315E+01 -6.462517430136E+01 4.344367079797E+01 9.637410343323E+01 -9.242048961140E+02 1.620271911819E+03
 -1.074137629489E+00 5.220546953496E-01 -4.685862406250E+00 -1.138783995095E-01 -1.689930924555E+00 -1.111472304665E+00 -2.493780587891E-01 9.654877333963E-01 -3.622620574357E+00 2.405519114922E-01 5.730061920626E+00 1.664032518909E+00 1.519961605707E+00 -8.559065199413E-01 1.155320377651E+00 -4.667439965249E+00 3.814520654404E+00 1.804220983238E+00 2.406782297007E-01 1.982967811877E+00 -1.562646361312E-01 -6.023733204064E-01 5.977004553484E-01 7.682750365988E-01 -2.565881418721E-01 4.688670368223E-01 -7.167390139161E-01 3.528505386157E+00 -1.171036392211E+00 -3.319463289077E-01 -2.814089976439E+00 -3.445419301232E+00 1.665731649381E+00 -3.073110465478E+01 5.220094835355E+01 -1.443589818412E+00 2.663106828645E+00 -2.708064422500E-01 -3.317881728426E+00 3.098945098813E+01 -5.404191878498E+01 6.623400330635E+00
 -3.457919733632E+01 1.028427774341E+02 -3.939359038234E+00 -2.875032501588E+02 -8.693349415077E+01 -4.309476235625E+01 -2.302329972805E+00 9.845555247487E+00 -1.083785976906E+01 -1.030048804737E+01 -2.295885060135E+00 -1.212994048250E+01 2.328109312692E+00 -2.538910935027E+01 -1.574376721772E+00 -8.070462015660E+00 9.601652254219E+00 1.148062480138E+01 7.313909562939E+00 -7.213620546189E+00 8.956310741757E+00 -4.001818800890E+00 2.181817583590E+00 8.485024171151E+00 -1.094077589438E+01 -2.407711356177E+01 5.950354379501E+00 -8.935762922427E+01 -2.026635375306E+02 -4.528212571177E+02 -9.896327615202E+00 -1.753946290569E+01 9.949580123627E+00 -8.180969013576E+00 1.120340276473E+01 5.948146885045E-01 5.505163824203E+00 -3.921532078202E+00 -8.679178977259E+00 1.578745693054E-01 -8.488783997005E-01 1.337071314370E-01 6.494649593115E+02
 9.616478947188E+01 -2.162537910165E+02 -1.318910506251E+02 -5.020317387090E+01 -1.216434132015E+01 -4.783020096381E+01 -7.509353293235E+01 3.612234992128E+01 -1.333728717114E+02 1.602930710103E+01 9.955741093913E+01 1.863915766664E+02 -1.086989221276E+01 -2.716710587646E+01 5.036275544214E+01 -6.328779394333E+01 2.877139150687E+01 1.235507613770E+02 1.768510568420E+00 -1.578506651245E+01 -8.916416555705E-01 6.228500771051E+00 -5.877065377785E+00 -6.983504462488E-01 -2.282045690646E+01 -4.224882423849E+01 3.390290017149E+01 -1.426808947093E+02 -4.170346893648E+02 -1.026389333224E+03 -1.008385824699E+02 -1.239161484999E+02 -1.323894925136E+00 3.349060209292E+01 -6.826159526820E+01 2.163680726808E-01 5.702069520167E+01 -3.479886913997E+01 -9.606969116309E+01 -3.685863475791E+01 6.623799513787E+01 -2.190482139564E+00 6.832144086172E+01 9.752275231466E+02
 -1.102091695482E+01 8.584338601224E+01 -1.411716785937E+02 -2.070498835442E+01 -4.290880907333E+01 -3.818209364657E+01 -8.518514289523E+01 7.093534018177E+01 -1.683945532201E+02 -1.244457730895E+01 5.406960611629E+01 1.545437345436E+02 1.376131869052E+00 -6.972377055582E+01 5.283816718469E+01 -6.680042944863E+01 6.997686459952E+01 1.532628361462E+02 -2.525536896624E+01 -1.417716977661E+01 6.093510629403E+00 8.701748225743E-01 2.705403583097E+00 2.702605289811E+01 7.132648991557E+00 2.925621018743E+01 -4.597984313717E+00 -2.766620875745E+02 -8.075389571313E+02 -1.721932285288E+03 -8.318057999931E+01 -1.518337580946E+02 6.818472416833E+00 3.621276336262E+01 -7.077801731107E+01 -5.531061601337E+00 9.168455041286E+01 -4.449449733777E+01 -1.166364137960E+02 -5.112268714746E+01 8.995956021020E+01 -2.381075327317E+00 2.117367371277E+02 1.081735290353E+03 1.934303120179E+03
 -4.834380025960E+00 -4.592122701918E+00 1.901288189534E+01 4.237087310148E+00 -1.616954652202E+01 -2.949328167441E+00 1.341568347850E-01 3.288719541948E+00 -4.069180652733E+00 -3.608400153272E+01 9.745552290736E+01 -4.474822443439E-01 -2.396219167575E+02 -7.543382449011E+01 4.335073429878E+01 1.086806048767E+00 -3.106218109117E-02 -1.048660611349E+00 5.215992266716E+00 -6.548054901138E+00 -9.205884283179E+00 -1.404792921344E+01 -2.638844288339E+01 -9.687035197778E+00 -2.825448604181E+00 1.364353336407E+00 -5.908173895064E+00 -8.740661329463E+01 -1.663986013144E+02 4.036470566748E+02 2.634965435729E+00 -1.805972660876E+00 -9.624217412071E+00 -7.678184257857E+00 1.261125727775E+01 -2.760759435577E+00 4.117599197506E+00 -7.221498217821E+00 -2.566050768831E+00 2.487281455291E+00 -4.246198025920E+00 -1.612683660469E-01 -2.191820057366E+00 -1.164032232403E+01 -4.207058535820E+00 5.743278998593E+02
 1.504458919740E+01 7.968378931910E+01 -1.649284829666E+02 1.952327389240E+00 -2.792344490521E+01 -4.169367286482E+01 -6.524043440082E+01 2.901670453770E+01 -1.114342680899E+02 9.594232199639E+01 -2.470095276398E+02 1.242872355539E+02 -5.713720497879E+01 -1.491251728071E+01 4.340793024614E+01 -5.900211258520E+01 3.212979319354E+01 1.118992710458E+02 2.281035264229E+01 -8.207305539865E+00 -8.688457786468E+00 -2.283929397746E+01 -5.464913397827E+01 -3.673226604415E+01 2.847936505150E+00 -6.971464477575E+00 3.187772506157E-01 -1.384490641575E+02 -3.332042406252E+02 9.153013193217E+02 -9.207146223057E+01 -7.373508507065E+01 3.271786406341E+01 2.551048853056E+01 -5.722391320556E+01 -1.285312293205E+00 5.852993153812E+01 -1.664121298216E+01 -9.782700404910E+01 -3.246049647134E+01 5.821319920384E+01 -1.706139541910E+00 -1.561232182688E+01 -1.082603826910E+02 -1.289509449797E+02 3.274890141114E+01 9.133910290408E+02
 1.739420935664E+01 -2.520774115592E+01 1.225463938280E+02 -5.170415379100E+00 6.815570609977E+01 4.103275205011E+01 5.763269163745E+01 -5.458907875099E+01 1.298584705908E+02 5.421552713018E+00 -6.860859873123E+01 -1.132434702533E+02 3.008931304879E+01 4.182130237425E+01 -3.660431331742E+01 6.627425229545E+01 -6.626179173563E+01 -1.405369930160E+02 1.036179983284E+01 2.241293715439E+01 1.576632508312E+01 -1.028601221756E+01 -2.729709655496E+01 -6.499721356172E+00 1.021372325525E+00 -8.880415813202E-01 2.463464037700E+01 2.582777636112E+02 6.656690415265E+02 -1.487118867873E+03 6.158114285191E+01 9.802850310242E+01 -1.762457749175E+01 -2.136302519841E+01 4.853386609666E+01 -1.084714496944E+01 -8.041525460486E+01 3.081706564073E+01 1.054963865085E+02 4.129099431295E+01 -7.318810579444E+01 2.053992142582E+00 2.251191108521E+00 1.103500978868E+02 2.192399988799E+01 -1.603706115730E+02 -9.453385800797E+02 1.708436275168E+03
 -1.286546822956E+01 -5.683930152910E+01 1.005995084725E+02 -3.527210186087E+01 7.477405376256E+00 4.136617710267E+01 8.698336075213E+01 -3.024143583225E+01 1.606826727595E+02 -8.142041299180E+00 -7.094600180379E+01 -1.080889946531E+02 -1.181267491720E+02 -1.336768473140E+02 -7.117314378902E+01 -1.088600576011E+02 1.524406512526E+02 -1.231589480014E+02 2.941149562160E+00 1.623885243565E+01 1.372373859002E+01 -8.086862925560E+01 8.112494269908E+00 4.581765132684E+01 -3.523932519519E+00 3.605625789723E+00 -1.810927092874E+00 -1.341066257047E+02 -2.120817778269E+01 -1.520484580032E+01 -3.494557660129E+02 4.083702672257E+01 -9.642540183043E+02 -3.356227579248E+01 5.833029260282E+01 -1.615457093892E+00 -1.072721960019E+02 4.856968635950E+01 1.330960554701E+02 3.171314603947E+01 -5.743065323049E+01 2.116590211579E+00 1.219069472747E+01 3.474008844586E+01 6.899927741842E+01 -9.166698048389E-03 3.887746463928E+01 -6.329420686741E+01 8.643212598959E+02
 1.060646363734E+01 2.512603881104E+01 -4.887825333260E+01 1.883924621542E+00 1.059167034849E+01 -1.806862282239E+01 -5.370761171449E+01 1.023766802198E+01 -1.055273381004E+02 6.431249134935E+00 3.281636224453E+01 5.402833883697E+01 -1.577874774710E+02 -1.353944134986E+02 -1.828742135658E+01 1.502921299408E+02 -1.835419773911E+02 6.644640189947E+01 1.641998238274E+00 -6.897747860762E+00 -1.267508151856E+00 5.558340274422E+00 -3.523694512604E+00 -1.173510349994E+01 -2.010061582117E-01 -2.872131399772E+00 7.766232328600E+00 6.768530911202E+01 1.181107058083E+01 1.168432117768E+01 -2.048887308543E+00 -1.306923528250E+01 7.462544991037E+01 2.063341540755E+01 -3.440978660809E+01 5.326881699135E+00 3.746179933408E+01 -2.368591417914E+01 -6.179324715404E+01 -1.634227787701E+01 3.007506289569E+01 -1.344539823011E+00 -6.431107136729E+00 -8.893810118205E+00 -2.878839645946E+01 2.062181436855E+00 -1.666790947652E+01 3.023789602622E+01 -1.285641462713E+02 6.275863840070E+02
 1.687170146626E+01 -8.416538680697E+01 1.425884331279E+02 -5.521577336991E+01 3.794791244506E+01 4.164907503624E+01 2.463697769974E+01 -3.253607796296E+01 1.425816333138E+02 1.579050881913E+01 -1.014371401683E+02 -1.535286894148E+02 -5.233242118272E+01 -1.377006830242E+01 -4.120657745392E+01 6.217964236700E+01 -4.412549980665E+01 -1.373323464356E+02 -2.755858026994E+01 -9.409545487894E+00 1.478959860944E+01 3.562103152516E+01 -1.454463230280E+00 -4.369402374597E+00 -1.607889965539E+00 -1.247607663709E+00 2.410698331422E+01 -1.313792751157E+02 8.569883308136E+00 -1.136458890877E+01 -6.351358061972E+02 1.503892189571E+02 -1.504686254394E+03 -3.467893936274E+01 6.380430216813E+01 -1.246633181936E+01 -1.163619544802E+02 5.417194904968E+01 3.384256425758E+01 4.795660838408E+01 -8.491098576584E+01 2.562195766867E+00 9.495887217905E+00 7.627596837975E+01 9.975703553806E+01 2.316948591321E+00 6.928158783794E+01 -8.691313035455E+01 8.942773636336E+02 -3.242074018382E+02 1.772089276091E+03
 -1.944124951012E+02 -7.105547755362E+01 -5.090161610133E+01 3.741053365729E+01 -9.384925164573E+01 -9.054151978040E+01 -1.779350192947E+02 1.737158596805E+02 -3.753899106220E+02 -2.051560633186E+02 -9.729389442459E+01 5.137879038287E+01 3.480574900039E+01 -1.074677967715E+02 7.683761287759E+01 -1.743771197975E+02 1.795374584283E+02 3.546851518430E+02 -1.009111623432E+02 6.238322078555E+01 -5.658523569331E+00 -2.411411481499E+01 2.942988153404E+01 4.519116915162E+01 -1.470203003211E+01 1.915415484258E+01 -4.543349668962E+01 -2.973778935959E+03 2.674043335865E+02 5.298596063306E+01 -2.224484371797E+02 -4.653632513640E+02 1.871340256715E+01 5.951229152251E+01 -1.946234504141E+02 4.171189899040E+00 1.865533289471E+02 -1.123810376712E+02 -2.267332555445E+02 -1.154033822299E+02 1.991906093550E+02 -6.896134288279E+00 -2.267704422225E+02 2.009872605310E+01 2.280918704318E+01 -1.969398979425E+02 3.396302452691E+01 -5.753836389085E+01 1.701587625675E+02 -7.797781910816E+01 2.020088795390E+02 3.636068845522E+03
 -3.799433698103E+02 -8.276518176395E+02 7.058520269381E+02 1.798305423770E+01 -5.050762096135E+01 -2.440174086401E+01 -6.914372080077E+01 7.780219744432E+01 -1.477915866424E+02 -4.019462787671E+02 -8.731702204330E+02 -7.258497030854E+02 2.932245071049E+01 -5.509015407416E+01 2.302190854151E+01 -6.833806318763E+01 8.322743316900E+01 1.380532023372E+02 -5.743170485912E+01 3.510595781924E+01 -1.821166455431E+00 -1.600772361310E+01 1.559986773886E+01 2.243489094269E+01 -7.346496525977E+00 9.715660204389E+00 -2.279416547436E+01 6.311395649003E+02 -5.077936988593E+01 1.648936783795E+01 -1.033079154764E+02 -2.562908351859E+02 1.145898501916E+01 -1.837413595224E+01 -7.614808810986E+01 -6.059579881657E-01 7.688091032881E+01 -4.969359341737E+01 -8.860176555682E+01 -4.821416321315E+01 8.050845353227E+01 -3.094229474441E+00 1.692410475659E+02 -2.593563167098E+02 -2.895931421043E+02 1.673878419405E+02 -2.369985093984E+02 2.628743960814E+02 7.677656670152E+01 -3.701860812899E+01 8.333719522749E+01 -2.238312187856E+02 2.236416702191E+03
 3.018131041645E+02 8.089364502235E+02 -7.136323240901E+02 -8.464990221609E+00 -1.929079100235E+01 5.720546777806E+00 -6.733271753586E+00 1.607859937740E+01 -1.592689070239E+01 -3.318111130566E+02 -8.361242421569E+02 -7.357053699110E+02 9.699232848333E+00 5.496484791492E+00 -6.899426901015E+00 2.705188075742E-01 -1.708329626429E+00 -9.008152144630E+00 7.941295066866E+00 3.714432020496E+00 1.268561856193E+01 -2.756510018318E+00 -6.705089724976E-02 -1.571404266284E+01 3.221440912417E+00 -2.005937421822E+00 -2.074578131113E+01 3.519877201795E+00 -1.404743813356E+00 -3.960195215736E+00 -8.897952896681E+00 -8.013488687801E+00 1.907959355929E+01 -2.706584311976E+00 2.315414449270E+00 -9.684250207712E+00 8.104151497827E-01 6.067232940974E+00 -3.636088993943E+00 -1.270934186017E+00 1.520593705083E+00 1.125992320084E-01 2.701622976949E+02 -2.449612574394E+02 -2.746652482572E+02 -2.614876898884E+02 2.387624654680E+02 -2.715030148476E+02 9.711961677001E+00 -7.972831426322E+00 2.700441497513E+00 4.972592327771E+00 3.207785193030E+01 2.059841459269E+03