#BIOSYM hessian 1
@Type: Hessian Update
@Units
 distance: 	A
 energy: 	Kcal/Mol
#header
@natom 19

#label
L1      L2      L3      L4      L5      L6      L7      L8      L9      L10     L11     L12     L13     L14     L15     L16     L17     L18     L19

#element
Li Li Li Li Li Li Li Li Li Li Li Li Li Li Li Li Li Li Li

#matrix
57
 3.373357422494E+01
 1.708956314573E+00 5.828793668043E+00
 -9.910044195934E+00 3.168548583374E+00 1.390370616781E+01
 -5.889290098008E-01 5.633650701713E-01 1.042568223617E+00 1.253103777115E+01
 5.424890317355E-01 -1.070332098123E-01 -9.839903287381E-02 6.642030536769E+00 2.754065895390E+01
 1.062614504098E+00 -6.223438458541E-01 -1.702387397763E+00 -7.044939971832E+00 -4.906906173774E+00 1.718390309301E+01
 1.836648050848E+00 2.857055591247E-01 1.186227562264E+00 -3.290688542001E+00 -1.401440218421E+00 1.095158337407E+00 4.074428364817E+01
 2.095786738379E+00 -4.975937763777E-01 -6.855858333190E-01 9.624125487278E-01 2.568556585724E+00 7.004475234834E-01 5.903904082871E+00 5.244998039182E+01
 2.526612913162E+00 1.260569244923E-01 2.707651515369E-01 -1.051606377053E+00 -5.127761398922E-01 1.111417013205E+00 3.607194814453E-01 -1.185570307204E+01 3.093468916524E+01
 -7.920650764209E-01 4.086196306368E-01 9.040287491911E-01 -1.669294024051E-01 6.130740383044E-01 8.345025746644E-01 -3.077728432239E-01 -1.275740845450E+00 1.922239884837E-02 2.063378492342E+01
 5.167836910250E-01 -2.072105461756E+00 -2.164531630834E+00 -9.958765342633E-01 -1.769079628563E+00 1.188085828873E+00 -1.328604232296E-01 1.374289604206E-01 -1.180771092031E+00 9.995627215495E+00 1.574611696813E+01
 5.341295019265E-01 -1.598601310131E+00 -3.701306299584E+00 -4.762844731314E-01 -8.787923585966E-01 4.541539602510E-01 4.957476776601E-01 1.111806030991E+00 -2.108855518559E-01 6.678654449776E+00 1.137492737455E+01 1.475756546138E+01
 2.335159645265E-01 3.990116812071E-01 7.565839647064E-01 -2.021206194264E-01 -8.409881592291E-01 1.915815114386E-01 2.704435014581E+00 -1.945357049164E+00 7.968137342892E-01 2.558537188209E-01 -5.392128568838E-02 -6.841487080043E-02 2.609029418735E+01
 -1.323146245227E-01 -5.249209441006E-02 1.002901135980E+00 -1.274005267132E-01 -8.191971140893E-01 -5.755539706600E-01 -9.965375102838E-01 9.892962580835E-01 -4.823737722404E-01 -3.829486232008E-01 -3.380122738684E-01 -2.811977075418E-01 3.756439381126E+00 1.515106947494E+01
 1.042389948713E-02 4.141326353136E-01 3.529916163434E-02 1.002998463635E-01 -1.569931958197E+00 4.744471247794E-01 2.726705896071E+00 -6.548829167879E-01 4.230855739724E-01 6.872029815933E-01 -1.473895711652E-01 -1.446542937953E-01 2.857658171669E+00 -1.674238507880E+00 1.199674700392E+01
 9.148866345302E-01 -1.599700609795E-01 -5.105217841121E-01 8.011008439742E-02 -6.237391339768E-01 -5.579156851771E-01 -1.700546893385E+01 -4.764899846515E+00 -3.676539668761E+00 9.604199293601E-02 2.561515155345E-01 -9.163386603548E-02 -1.991848990467E+00 1.186593723968E-01 -1.303337056105E+00 2.933102999981E+01
 -7.227095605758E-01 -8.357884138905E-02 -1.609359049487E-01 6.178778830300E-01 6.439072304409E-01 -9.829087732697E-01 -6.112584007375E+00 -1.609923845556E+00 -9.138868363875E-01 2.674167363983E-01 -1.309982026808E-01 2.672308251191E-01 -2.964777832722E-01 -4.923410100218E+00 2.438866899275E+00 3.871790164844E+00 1.428026648628E+01
 -1.402616808918E-01 4.223410473365E-01 6.960170097702E-01 7.516957070779E-01 7.969219195907E-01 -1.147406538679E+00 -3.051614138522E+00 2.826424063606E-01 1.690544305823E+00 -7.843930848487E-01 -1.202146022826E-01 -2.474848690927E-01 7.138406290649E-01 3.811358683320E+00 -3.204973230124E+00 4.638118968674E+00 -4.299315044327E-01 1.429540370234E+01
 -6.412396060072E-01 -3.396081901619E-01 -3.064325090423E-01 7.281187691541E-01 -5.268102727841E-01 3.784208289206E-01 7.784481209948E-01 2.477705973791E+00 -1.320009266507E+00 1.513905134167E-01 3.044401490420E-01 -6.821010605733E-02 -6.362638302218E-01 -9.746884014814E-02 -5.709311530455E-02 -4.499187075007E+00 2.298556746440E+00 1.273646505575E-01 1.099653605333E+01
 -1.483793559663E+00 -3.948187068122E-01 -2.921262993080E-01 -7.458113666931E-01 -2.342433164079E+00 2.060319819032E-01 2.513202659422E+00 -2.456413554313E+01 -1.525398076303E+00 2.091742818185E-01 1.165552938384E-01 -6.091398686679E-01 9.772983227343E-01 -1.210245482203E+00 3.448752770076E-01 1.489190304275E+00 -2.558875549037E+00 -2.094419893465E-01 -1.285546055355E+00 3.619319609772E+01
 -1.526445103977E+00 -2.205417824023E-01 6.395005136478E-01 -8.603905217965E-01 -1.276311458422E+00 2.882829809607E-01 -2.380880941108E+00 -2.315753973432E+00 5.398061640961E-01 -6.336482825711E-01 2.010523807408E-01 1.668120619931E-01 6.794915605845E-01 1.475568257594E+00 -1.206512384063E-02 6.757242162883E-02 1.332667533588E-02 1.081666151625E-01 -2.126957070122E+00 3.175454628347E+00 1.019493623679E+01
 7.148529934757E-01 -2.044432860333E-01 3.250142917823E-02 4.968643019551E-01 7.289813842327E-02 6.736925383394E-02 -4.922627315822E+00 7.897538961936E+00 3.519137713713E+00 -1.402374133890E+00 -3.500225622469E-01 -8.391783149865E-01 -2.391092240353E+00 -9.467052802132E-01 -1.716556622234E+00 -2.610145074562E+00 -8.388507887824E-01 -5.997117823660E-01 -2.662184067647E-02 1.513198955588E-02 -3.374089345682E-02 2.561858643065E+01
 -2.012387790829E-01 5.046138255058E-01 1.835270864236E-01 -8.129841957444E-01 -4.850799410539E-01 1.205083678954E-01 6.337277624711E+00 -5.995634175319E+00 -1.953542577958E+00 -3.983630760006E-01 -3.604400897276E-01 -2.408646738556E-01 1.037876428266E-01 -1.650823296507E+00 8.317377778403E-01 -1.392587319021E+00 -4.290717731752E+00 -3.219918774464E+00 5.150206636166E-01 -6.339141194135E-01 -1.015048813197E+00 -2.342243720926E+00 1.756273318041E+01
 2.136562311654E-02 -4.584507782667E-01 -8.844178912958E-01 -2.489936886817E-01 9.166368677719E-01 -4.437786194337E-01 5.138251027272E+00 -4.831275129996E+00 -8.323754007181E-01 1.174005684518E-01 8.301080277122E-01 1.207500910273E+00 -1.427328987198E+00 -1.722995526336E+00 -4.616785623558E+00 -3.380933463041E-01 -1.532386499803E+00 -2.836533239018E+00 4.155611477013E-01 5.713986879077E-01 -5.800626469566E-01 -6.104945359807E+00 5.147794742104E+00 2.323438149666E+01
 -1.015616041251E+00 -3.097810635582E-01 3.222474159048E-01 -5.967461947403E-01 -1.548878310653E-01 7.297250040119E-01 -2.610711776207E+00 -2.225644340865E+00 4.544003346312E+00 1.986769968108E-01 -4.127854599878E-01 -7.323201903146E-02 4.261880577454E-01 3.791083913854E-01 3.434939672690E-01 -1.500027195295E+00 4.961017442165E-01 -2.430177455095E+00 -5.619451969974E-01 2.102626664008E+00 1.910427319462E+00 -3.660427029941E-01 -6.186909247867E-01 -6.281535000401E-02 1.210420703243E+01
 -5.002128544857E-01 1.871032302902E-01 -1.826335326388E-01 8.248429290451E-02 -8.246225604569E-01 -2.135803120010E-01 -1.759973639127E+00 -1.643320863475E+00 8.394032785030E+00 5.767545551480E-01 -2.911532995493E-01 2.541286638835E-01 -1.200800374843E+00 -8.185357549851E-01 -1.715745855125E-01 -2.000926121736E-02 -8.670131823992E-01 -2.024058049356E-01 3.457931104691E-01 -3.011251122050E+00 -3.257755914860E+00 -1.377283112277E-01 -6.902862625787E-01 1.376395406393E-01 5.645492270412E+00 1.446742863179E+01
 6.456087182113E-01 8.917051834171E-03 -7.771320696238E-01 -4.593378409240E-02 -6.252837133355E-01 1.668879256552E-01 6.018512138547E+00 7.544414772027E+00 -1.580875120130E+01 8.764940519480E-01 5.853703762559E-01 7.078303111203E-03 -1.469105907041E+00 -1.140003696581E+00 6.586454682257E-01 -1.737314174676E+00 8.803784609993E-01 -6.380666419167E+00 2.191765997367E+00 -1.441615808880E+00 -5.528775763394E+00 1.380043754241E-01 3.704421597684E-01 -2.837975863568E-01 -5.621004945602E+00 -5.741639236736E+00 3.016800997212E+01
 4.620849584649E-01 -1.097948323973E-01 -1.447034834383E+00 -8.527491970101E+00 -5.106002698074E+00 -5.464138646121E-02 6.260662187739E-01 -2.695039749804E-01 2.307494825036E-01 -6.106813819420E-01 1.218205336531E+00 1.177335016195E+00 -1.434397878800E+01 -1.638911189776E+00 -4.560621096333E+00 2.907965634105E+00 2.517202692474E+00 -8.324298397648E-01 1.709138622085E+00 6.428255764567E-01 -3.099230750363E-01 -5.213087227808E+00 2.439244487391E+00 5.638555445224E+00 -6.172051919256E-01 1.546568951160E+00 -1.526744191726E-01 4.593852800706E+01
 1.641037044438E+00 9.845651486406E-01 6.890384637400E-01 -5.910531868346E+00 -4.661431406662E+00 3.177577421064E+00 4.116609676052E+00 -1.354939245540E+01 6.099387856281E+00 9.715125549339E-01 1.196152647386E+00 7.774377927240E-01 -3.331019258275E+00 1.466817285021E+00 -5.057169918793E-01 1.972269111985E+00 9.599875413552E-01 5.042627203475E-02 -1.793149602394E+00 7.639915235956E-01 3.210827413476E-01 2.257198673409E-01 2.187675760737E+00 6.709664988792E-01 -1.591171361392E+00 1.499463034143E-01 -4.606013671293E-01 -9.374577782518E+00 4.028362170011E+01
 3.506453261877E-01 -3.142333757813E-01 -6.125334836944E-01 8.327192029461E-01 3.425708009289E+00 2.224494493056E-02 -5.241825955572E+00 1.080288995758E+01 -3.425320927631E+00 -4.134924333815E-01 1.931287874266E+00 -4.335183270559E-01 -4.845312857754E+00 -9.754074897361E-01 -5.108703012097E-01 3.074304972817E-01 -1.878691803697E-01 1.119959142830E+00 -3.225511043951E-01 -5.067893064506E-01 -3.169444325898E-01 9.400220356160E+00 -1.040062258707E+00 -8.118446932904E+00 -1.392931758140E+00 4.267378230248E-01 -1.020296534090E+00 1.549050842273E+01 -8.579472068292E+00 4.555551485023E+01
 -2.814945579100E-01 -7.279101916283E-01 -4.802396982999E-01 -4.142182602590E+00 -7.294142212124E-01 5.598682068227E+00 1.031860764708E+00 1.711597887259E+00 2.028775461476E-02 -5.947557604471E+00 2.679755295583E+00 -3.471017430942E-01 6.069046507338E-01 9.634882556186E-01 -6.598741699240E-01 2.546297454198E-01 -1.280182334016E+00 -1.734716213056E-01 6.705013319859E-01 -4.119720388947E-01 9.888669594451E-01 -5.351874970187E+00 -4.482510823452E+00 1.801549109497E-01 5.525530911423E-01 -7.185575905490E-01 6.802672625767E-02 -5.471256769841E-01 9.623698481414E-01 -1.717500488913E+00 2.372610836716E+01
 5.497564563747E-01 -2.994606979208E-02 -1.134217005543E+00 2.656214729633E-01 -1.696107470822E+00 1.235219618689E+00 1.512105315196E+00 3.091900286250E+00 3.671276198611E+00 1.349097079164E+00 -8.851161583734E-01 1.209600571422E+00 9.571084212215E-01 -4.296639817475E-01 -1.461282061437E-01 -2.295322137890E-01 -7.113199868018E-01 -8.237349518300E-01 -5.890745723871E-01 -1.979735676886E-01 6.902232837342E-01 -3.522349027026E+00 -3.791512740444E+00 9.857584154780E-01 5.479929332995E-01 7.349085013426E-02 -8.227459536959E-01 -1.563269451682E+00 -1.589134612246E+00 -7.904373407538E+00 -2.886774511399E+00 2.050331216898E+01
 -6.204229988768E-01 -4.141244886801E-01 8.626817411620E-01 4.233342009316E+00 -4.389689915349E-01 -8.456355418498E+00 -1.208418574970E+00 1.842389311299E-01 1.008933557537E+00 -9.855228187904E-01 -6.812658243451E-01 -2.889184737580E+00 -3.717710967186E-01 5.162343972976E-02 -7.186690472919E-01 -2.057010835612E-01 6.450989972414E-02 5.211214991954E-01 -4.923023009979E-02 4.801119747903E-01 5.043415777932E-02 6.907851979512E-01 -1.013399868437E+00 -1.199527487194E+00 8.156598449752E-01 5.007075199260E-01 2.306709403035E-01 -1.011814204111E-01 -1.954266636111E+00 -4.763380070503E+00 -3.443275118086E-01 -3.304616105158E+00 2.798165825754E+01
 -7.250954121894E-01 -1.505909443897E-01 4.600676677518E-01 5.948940545040E-01 -3.769140880558E-01 -7.279353795361E-01 1.046801384387E+00 3.109977628843E-01 -3.409192983931E+00 1.598814584559E-01 -3.163846950388E-01 -4.816438216626E-01 -3.955357428557E+00 3.033479749774E+00 3.544676350872E-03 -3.607915640113E+00 1.734038104196E-01 1.392712913013E+00 -9.615924805609E-01 -1.309000845203E+00 -5.450210377777E-02 7.568149315006E-01 -8.417977647796E-02 4.895234496849E-01 -5.278270296991E-02 -3.210898712059E-01 1.475778873665E+00 1.753541539780E-01 -3.588225841793E+00 1.564611837183E-01 -3.397361322782E-01 -6.012807130474E-01 -9.199682433625E-02 1.706229150884E+01
 -1.003118915372E+00 -7.964906467582E-02 2.573859528130E-01 3.534715870969E-01 9.221701081336E-01 -4.122060873950E-01 -1.078493164331E+00 -1.094004555803E+00 -1.713462338449E+00 -2.659472800811E-01 -4.213500416508E-01 -3.356618976728E-01 3.380641596058E+00 -3.322999922089E+00 -1.258437167926E+00 -1.000057771474E-01 -3.643681326502E-01 -1.939149337459E-01 9.425180111820E-01 -1.650417668011E-01 3.941937628307E-01 -1.099114720830E+00 6.417385525361E-01 2.487578974266E-01 1.136340515200E+00 2.132485330871E-01 5.302005250525E-01 -2.368344585747E+00 -1.068135173364E+01 -2.770108150603E+00 -1.822377691263E-01 2.193152452924E-01 -4.225941395342E-01 8.429917112966E-02 2.097339795769E+01
 -1.078564954661E+00 3.340553182252E-01 7.293013691310E-01 2.979264160076E-01 -1.074863452298E+00 -1.060676463269E-01 -1.328834562674E+00 -5.691253328380E-01 -1.148832289233E+01 -4.894285430850E-01 -6.770222141706E-01 -5.533524958380E-01 9.405458942543E-01 -7.878480152235E-01 -6.197866754532E-01 2.160147733669E+00 -1.561956131677E-01 -3.938309790793E+00 -2.708657592346E-01 -3.131179975878E-01 -9.801891764062E-01 -1.292502456700E+00 1.845874321699E+00 9.056630718412E-01 7.891854756703E-01 5.351385122566E-01 -6.061040955540E-01 -1.369111583983E+00 -6.241990347452E+00 -6.280798195117E-01 -3.437822517981E-01 1.079937378440E-01 -6.499753958474E-01 1.150659158566E+00 5.625725328441E+00 2.114372971713E+01
 -1.305924825604E+00 2.413744805041E-01 -9.060604260877E-01 -1.666581175654E-01 2.849130155170E-01 9.121938690390E-01 -2.384051939172E-01 3.628547434186E-02 -2.194777902511E+00 5.442482745317E-01 9.984979641430E-02 5.083959499665E-02 -4.753329310279E+00 -2.663792359970E+00 3.210634102981E+00 4.781343869040E-02 3.647037042357E-01 -9.864814747704E-01 3.062106037460E-02 9.695217652022E-01 -2.520998352797E-01 1.202267718862E+00 6.280505902917E-01 1.369160088173E+00 3.971787111304E-01 3.342989515565E-01 1.085207549838E+00 2.128008778456E-01 -3.073414216204E-01 -3.383549577351E+00 -8.553931704462E-01 -2.517302516049E-01 5.795809194794E-01 -7.830254430519E-01 4.057723705437E-01 1.408707017901E+00 1.447750351776E+01
 1.181861102109E-01 -3.857929464546E-01 -6.120204072330E-01 -2.900947956161E-01 -6.142019573494E-01 -2.289111942376E-01 -4.115850255327E-01 8.734063364059E-01 1.250248288183E+00 -7.099302010963E-01 6.369468185422E-01 1.023344115094E-01 -1.109934128266E+00 -9.217521608411E-01 1.216064434040E+00 3.139714921293E-01 -7.729799783678E-01 8.499846075804E-01 -1.113009809513E-01 -4.757058353484E-01 4.206149824891E-01 -3.654774770509E-01 -5.415840103291E-01 -6.978846404240E-02 -2.139011042903E-01 -2.201083114621E-01 -7.557064563826E-02 1.415702227101E+00 -2.201335685130E+00 7.217106613012E+00 3.355830272444E-01 3.413207006458E-01 -3.008797971455E-01 2.015469292560E-01 -1.819618422986E+00 -1.586415578587E-01 -3.490907334688E+00 1.099092775884E+01
 -1.239445052395E+00 -4.004814533767E-01 5.254704199812E-01 1.209255032052E+00 7.783695212958E-01 -1.302389884391E-02 -4.018222099897E-01 5.783970385732E-02 -3.591189334368E+00 6.561404797472E-01 -6.478727561846E-02 8.156295228263E-01 1.611027353280E+00 2.541947500327E+00 -2.863464547210E+00 -2.549099156579E-01 1.914734620598E-02 -3.781246395535E-02 1.336813494111E+00 -1.338057254479E+00 6.161764671768E-02 -5.097773032173E-01 6.711020392778E-01 -2.124781002258E+00 9.911040388869E-02 -4.986281139513E-01 1.019506663144E+00 -4.435533401046E+00 6.350481506143E+00 -2.324275277868E+01 -1.550576832068E-02 9.628898028930E-01 8.694190863785E-01 -4.987004842511E-01 -9.884569118592E-01 -1.196444483396E+00 -3.654480457704E-01 -7.368661622696E+00 3.504191746960E+01
 -4.246451121789E+00 -2.913553641000E+00 4.041894709242E-01 1.134592398076E+00 -3.004446375870E-01 -9.552036656560E-04 -5.368344540554E+00 5.914172376170E-01 3.360169511167E+00 5.733650448403E-01 1.578853993209E-01 3.615392940737E-01 -5.632290885697E-01 3.547915843673E-01 -2.684240648933E-01 -1.294208861760E+00 3.830654483778E-01 -1.390033995808E-01 -1.505736309841E+00 -1.424273245396E+00 3.034380789795E+00 -9.880753871304E-03 -4.130854040906E-01 -6.625343224581E-01 1.137187314335E+00 -1.887701899972E-01 -8.469751385134E-01 1.084958718203E+00 -3.026203330853E+00 -7.235626588613E-01 -6.480754834222E-02 1.134961360778E+00 1.290909665791E+00 -5.278227353609E+00 1.483608330988E+00 -2.283704697009E+00 4.353574041293E-01 1.401696402703E-01 1.140650310539E+00 1.697717947866E+01
 -2.127991343204E+00 -3.058620436062E+00 1.972051429186E-01 -4.104340791352E-01 -2.063341507599E+00 -6.670479721199E-01 1.403234558212E+00 -9.227793530642E-01 4.076173753705E-01 1.093140593450E-01 -8.974420276915E-03 7.377810211919E-01 4.540318754854E-01 9.558680720887E-01 1.070235925700E+00 -1.231653196755E-01 2.222073400936E-01 3.398561205716E-01 -2.864658480042E+00 -4.163970400359E+00 1.919841894415E+00 1.729701243403E-02 -5.229109415931E-01 -1.025067714158E+00 -1.502231784752E+00 8.295931231610E-01 -4.154822189189E-01 -2.047763340465E+00 4.810148922944E+00 1.037267652857E+00 1.742892913892E+00 -3.201027901199E+00 -3.984384875106E-01 2.115855525894E+00 -3.427275472679E+00 -1.366041054104E+00 3.465576545756E-01 1.305666362807E-01 4.631908000219E-01 -5.355482466308E-02 2.650813293233E+01
 1.854800939102E-01 -5.926180834694E-01 -9.562609704851E-01 2.043924030508E-01 2.215334262254E+00 -4.252125001753E-01 5.251209150941E+00 -9.161429749494E-02 5.198952862281E-01 -3.148438973491E-01 4.287168999192E-01 1.262888208180E-01 9.759841893853E-02 6.965208129621E-01 -5.324945760601E-02 -8.713924684657E-01 -1.042839359077E-01 -4.404962307461E-01 1.161756469329E+00 1.254226839500E+00 -1.593637399734E+00 6.876721919461E-01 -7.520707147976E-01 -2.486009910804E-01 3.829467637801E-01 4.404810494902E-01 6.425306728558E-01 -1.413553439849E+00 4.333664383595E+00 -1.483201276294E+00 1.246898149182E-01 -2.016786684714E+00 -9.572301268892E-01 -9.097592879550E-01 -4.255122341896E-01 -2.244487580192E+00 -3.593130436366E-01 -7.700044411201E-01 -7.898985637720E-02 -2.574410484560E+00 -6.129500436670E+00 2.196431259115E+01
 -2.314055512750E+01 2.635276322340E-04 1.210313017430E+01 -2.022662024551E-01 -6.257523227863E-01 -8.286575377604E-01 -1.317101567547E+01 -1.290376353136E+01 -8.651297502897E-01 -7.882143017226E+00 -1.073048104579E+01 -8.321380181292E+00 -1.814523800985E+00 7.883732316755E-02 -3.144982856972E-01 -1.124858655741E+00 -3.545683971559E-01 8.444584276873E-01 -1.309450054267E+00 7.047084892741E-01 1.550521388079E+00 2.700949010813E+00 -7.079769648243E-01 -1.967432338985E+00 -5.298889884520E-01 -5.242039276927E-01 -1.120037265892E+00 -1.379556683864E+01 3.968789925303E+00 -1.171938166036E+01 -3.304386166555E+00 2.163899236927E+00 2.538035630966E+00 1.627262107391E+00 2.146842801089E+00 1.446440038620E+00 -2.852155484329E-01 -1.093421613924E+00 2.527896908870E+00 1.061817250764E+00 8.761017727308E-01 -3.735251302512E-03 6.716523020065E+01
 -1.110216757763E-01 -8.314504463819E-01 -6.012786430868E-01 -3.339524585901E+00 -1.024498489175E+01 7.238262562644E+00 -1.666905201659E+01 -6.172523834307E+00 -2.773682429829E+00 -1.005658595094E+01 -9.252207600039E+00 -1.182715513769E+01 -9.247632458269E-01 -1.111792401088E+00 -5.841011317273E-01 1.710682703815E+00 1.117154657422E+00 7.787731981546E-01 1.701183966939E+00 3.040109456149E+00 6.741695721030E-01 7.676849812952E-01 -1.736180973906E+00 -6.047324262710E-01 -1.497394543934E+00 -1.992212760992E+00 -5.174585468783E-01 6.777021793755E+00 -3.576929239567E+00 2.080091650609E+00 1.827744055020E+00 1.105136404182E+00 6.740438398875E-01 3.403516547739E-01 3.950409117588E+00 3.730118273355E+00 -9.377447705291E-01 8.462834372273E-01 -1.903600048107E+00 1.844618898500E+00 -6.250013779883E+00 -2.509577122631E-01 1.204406187190E+01 3.774099619579E+01
 1.066810128137E+01 1.710948093421E-01 -5.578129825854E+00 3.557034707462E+00 1.286941292553E+01 -4.443195039770E+00 4.764562719536E-01 1.193840360593E+00 3.949991845305E+00 -1.011066125825E+01 -1.346479585019E+01 -7.194761448011E+00 1.037896142444E+00 6.910425769616E-01 -1.199535542172E-01 1.182499795757E+00 -1.085037479593E+00 -1.161711961015E+00 -9.328105412500E-01 9.526664113283E-01 -2.015424484164E-01 -2.013408769199E-01 5.226587992614E-01 8.410449038522E-01 1.532292107452E+00 1.285912022688E+00 -9.357552424891E-02 -1.134742024578E+01 -1.610593097826E+00 -7.818748701548E+00 -3.730162921759E-01 -4.369714700716E-01 -7.480763954977E-02 1.128817550417E+00 -5.529196775619E-01 1.439786085898E+00 -1.259727361782E+00 6.545819840987E-01 4.855114963577E-01 -2.007323651479E+00 -9.366400261893E-01 4.883639980974E-01 3.992362063829E+00 -3.656817820083E+00 3.883857709377E+01
 2.466336702288E-01 7.095808200655E-01 -6.707917847279E-01 1.785861616778E+00 2.090814161893E+00 -7.668598294048E-01 -2.828630067506E+00 1.351380126748E+00 -1.626472093485E+00 4.334776987516E-01 1.016247383238E+00 5.656816630925E-01 5.963809853650E-02 -1.654559763513E-01 -1.612321723690E-01 -2.057033507369E-01 -5.899915455093E-01 -7.521865879270E-01 -3.799204026443E+00 -2.513677693174E+00 -1.321065437072E+00 -8.893562253955E-01 9.930272355767E-01 -2.592720612970E-01 -4.262303718841E+00 2.864569408101E-01 5.056080698534E-01 -1.719106594914E-01 -9.769451231585E-01 -8.571545588310E-02 -1.847141829088E-01 -1.210984967052E+00 -1.498311734588E-01 -5.336614690617E-01 -8.114854354440E-01 -4.722158506490E-01 6.479177409239E-01 8.655465543075E-01 -7.678198787444E-01 -1.798894209638E+00 2.648752845943E+00 -1.802017529178E-01 -2.660106692648E+00 2.591274362801E+00 -1.638322501330E+00 1.655886695596E+01
 9.485058815609E-01 1.295014625474E+00 -5.703368202559E-01 1.039099721689E+00 9.590234200901E-01 -3.377208347854E-01 4.188573424863E+00 -1.040267165076E+00 3.616383085710E+00 -2.293350870557E-01 3.132980761882E-01 -6.248844142950E-01 5.688995798099E-01 3.473980562712E-01 3.464435098908E-01 -2.386295620184E-01 9.182402376148E-02 -1.571961389879E+00 -1.174361245448E+00 -2.037400476812E+00 -7.213657687979E-01 -5.850059501594E-01 1.155812869095E+00 -4.812538160506E-01 6.861517878428E-01 -1.289319780986E-01 8.532234832084E-02 -4.013572964615E+00 2.220057172406E+00 1.298242332138E+00 -1.133385068253E+00 -2.236755310129E-01 4.175345200996E-02 -1.294620741134E-01 -1.261592802387E+00 -9.209795986754E-01 1.583143122000E-01 -6.400106287905E-01 2.380234402158E-01 -1.167793521918E-01 -1.947423193919E+00 -1.121577042346E+00 5.460819267057E+00 -9.156308263930E+00 6.613191582630E+00 -8.382647895626E+00 1.653038811997E+01
 4.537094429745E-01 -1.665678245621E+00 3.680185538806E-01 -1.246688169143E+00 -2.652170664136E+00 -3.150056393762E-01 -5.910307266616E+00 2.840059191495E+00 -4.218294644666E+00 -2.128854365624E-01 3.412466368254E-01 -9.437914607913E-01 8.101141250611E-01 -8.007929833634E-01 -2.794709493210E-01 8.591318249457E-01 2.199833403108E-01 3.089505109789E-01 -3.284028177978E-01 -1.522412127393E+00 -2.243778231078E+00 -8.340258444409E-02 -2.773871570501E-01 2.838425600367E-01 -1.089964123051E+00 -1.028629394237E+00 -1.177914149527E+00 -2.155240028580E+00 1.180981061382E+00 3.380123434570E+00 4.864517645395E-01 4.492766252581E-01 -6.355084769000E-01 -9.092692156648E-01 1.417858186517E+00 7.377713149584E-01 -1.002339368220E+00 7.405084740858E-01 -7.558295979012E-01 1.043148619494E+00 -1.547367972015E+00 -9.522982388388E+00 -5.969462064117E-01 7.581225082736E+00 -3.342134850651E+00 6.371562385484E+00 -4.900704022449E+00 2.130359920387E+01
 2.273330445379E-01 2.970899757878E-01 -4.122283909390E-02 2.363436803575E-01 2.634481433409E-01 1.548961664742E-01 -1.022592022274E+00 -7.558050062025E-01 -1.080250744101E+00 -5.433219952514E-01 2.033302132734E-01 -1.094697107973E-01 -1.637374068328E+00 -3.206827071800E+00 -4.331460609670E-01 4.094400546758E-01 -5.880356667445E-02 8.112768525015E-02 -3.573297059178E-01 6.807011033802E-01 2.350859390475E-01 -1.095894674511E+00 -2.483003548658E-02 4.203470615787E-01 1.317376493267E-01 -7.529611332703E-02 2.566761468692E-01 -3.403652408735E+00 9.885463218685E+00 2.027278760222E-01 -4.297124061288E+00 1.464780506968E+00 -3.588505999809E+00 -1.179504922907E+00 4.281107815872E-01 3.910722232181E-02 -9.262505689409E-01 1.151494157208E+00 6.005211639205E-01 2.613103337050E-01 -1.266055970283E+00 -2.216385733182E-01 5.344178378174E-01 7.724636362884E-01 -2.747303044035E-01 -3.823228976941E-01 -5.396616177798E-02 6.857833397813E-01 1.171086136300E+01
 -5.472180765975E-01 -5.559575506546E-02 4.905479545809E-01 3.355622399469E-02 -1.073689990159E+00 4.704853667001E-02 1.170522596294E+00 1.298044482804E+00 6.465363848200E-01 7.969440068874E-02 5.472747322958E-01 -6.025020827511E-01 -1.516259264108E+00 -4.650795681853E+00 -3.942788965392E-01 -2.885220303673E-01 -3.199812799221E-01 -1.096456606363E-01 8.602582009860E-01 -3.465677243275E-01 -3.179829213166E-01 4.282889200888E-01 -1.009545523062E+00 9.199781973248E-01 -6.709022258585E-01 -6.210389708249E-01 1.166806218536E+00 8.419267457232E+00 -2.004186957299E+01 -1.605942388007E+00 2.157867348659E+00 -1.109312563409E+00 1.660281592897E+00 1.581140875995E+00 -7.015266488315E-01 -8.624462079954E-01 1.281610978458E-01 -1.318372972087E+00 -2.110901134741E+00 2.632054520050E-01 3.854078006099E-01 -5.373871516938E-01 -4.406868323623E-01 9.442448653678E-01 -7.666630055493E-01 4.314821436962E-01 -2.555142349614E-01 -2.458194543042E-01 -1.008933037323E+01 3.034196570109E+01
 -1.469856520584E-01 7.664013140023E-01 3.193788713040E-01 3.118812088644E-01 3.941680080916E-01 -5.125289947978E-01 -6.359612648364E-03 5.825683229213E-01 -8.205860128601E-01 -2.592411300219E-01 -4.651257281995E-01 -2.903087255913E-01 -3.799937801784E-01 -1.923110535035E+00 -3.705286455408E-01 -1.546517289955E-01 6.557022570022E-01 -2.939847594545E-01 -3.312990335822E-01 6.215184307018E-01 -3.845741203444E-01 7.502815851692E-01 2.614870290546E-01 -9.159695512137E-01 -7.073893819012E-02 4.184427706341E-01 2.323839505505E-01 1.326126243578E-01 1.572754307268E-01 1.712074097064E+00 -4.536144455191E+00 4.481520175517E-01 -5.874581769104E+00 2.926024866041E-01 1.398686746041E-01 8.859269968523E-01 2.175732361135E+00 -3.100968792128E+00 -5.584085737329E+00 -5.106332492523E-02 -1.008819721513E+00 1.673426008802E-01 -5.441854700821E-01 4.038725239939E-01 -3.857657329343E-01 -2.346110666492E-03 -2.257588064261E-01 -2.494279105448E-01 3.481840269176E+00 1.065440566592E+00 1.224821708341E+01
 -4.420651063984E+00 -1.611000881576E-01 -3.514973429620E+00 -3.527678419406E-02 1.030416712091E+00 -1.901683526716E-01 2.771183340302E+00 1.086394023207E-01 -6.857100789555E-01 1.716764214877E-01 2.334225275319E-01 -5.521080594577E-01 8.825362183876E-01 6.790476583317E-02 4.931670003755E-01 -7.689006526833E-02 -8.404368355998E-01 1.108603372838E+00 -2.965809596500E-01 8.416449468225E-04 3.832615322450E-01 -1.478167174132E+00 1.102051816387E-01 1.318268023904E-02 2.376197458353E-01 3.726034124874E-01 -6.466742716220E-01 -3.958677515141E+00 4.186482619994E+00 2.514370259948E+00 -1.528872604379E-01 -1.112592062039E+00 -1.527074165830E-01 -4.604368203357E+00 -3.154019301779E+00 4.532424412603E-01 -7.133608231666E+00 3.391173133232E+00 -1.730794876084E+00 -2.562011679861E+00 1.556225177868E+00 -1.472541765108E+00 -3.406516328631E+00 1.501220356057E+00 -9.933359255058E-01 -4.689170128625E-01 -5.957551067493E-01 1.336054570650E+00 4.660408086035E-01 -2.867587229321E-01 -5.555908690939E-01 2.261014719036E+01
 -3.469805832517E-01 -9.846889568488E-01 -1.411827133656E-01 4.885081980653E-01 -9.012448031393E+00 -4.562370110396E+00 1.758999880458E+00 -1.481260798923E+00 2.643320267043E-01 -1.717211089183E-01 -6.410910609173E-01 6.558224435333E-02 5.692655054027E-01 4.337664588572E-01 5.596535205969E-01 -4.249065782792E-01 -1.300139512931E-01 -6.047757727026E-01 -4.549544127483E-01 9.258204688004E-01 3.747864953059E-01 6.766748464949E-02 2.557460747599E-01 5.203239622633E-01 6.333902567170E-01 1.148742086036E+00 -9.503621228147E-02 -1.880986675245E-01 2.552214248268E+00 -2.411246190312E+00 -1.032974590105E+00 1.022777679574E-01 -1.347670847845E+00 -1.664512593196E+00 -2.609702796463E+00 1.460702964399E+00 2.610746486706E+00 -3.556903534712E+00 1.615868247934E-01 2.030621241602E+00 -1.171014970493E+01 6.073466799068E+00 8.253816183636E-01 2.057987214139E+00 -8.663966415501E-01 -1.180505093735E+00 -3.245013378559E-01 1.116285363762E+00 4.011637212956E-01 -1.216446943157E+00 2.723574575867E-01 -4.238340396268E+00 2.645629278899E+01
 -1.885205425539E+00 9.734316168778E-01 -2.936636530649E+00 -1.508918372864E+00 -8.532751605735E+00 -3.401749235742E+00 -2.079853720183E+00 -6.543213907535E-01 4.213341500079E+00 6.015666333893E-01 4.450583271382E-01 -1.910259513602E-01 -7.812977219707E-01 -2.542430287448E-01 2.755245543922E-01 1.050775315061E-01 1.019614047558E+00 8.424349615546E-01 1.777046744034E-01 2.036593880000E-01 -6.559732309481E-01 -1.044859885466E+00 -5.680221494531E-01 -3.876701299478E-01 -5.290501313129E-01 -8.058713783757E-01 1.176750452228E-01 3.873665435895E+00 -8.740883812740E-01 -1.220652710897E+00 2.502911158886E+00 -5.313412858201E-01 -1.023015637938E+00 4.162761331409E-01 -5.451097275829E-01 -3.378082054107E+00 -7.875751816193E-01 3.123255162674E-01 -1.067713692243E+00 -3.221129990067E-01 6.522506609174E+00 -6.125157937612E+00 -3.341885439359E+00 -2.277438581131E-01 -2.122175878260E+00 2.221029833126E-01 1.412728375260E+00 -1.666531194102E+00 -2.331521156885E-01 9.271734831815E-01 9.072473937319E-01 4.408538988738E+00 8.910938777924E-02 1.879144072277E+01