#BIOSYM hessian 1
@Type: Hessian Update
@Units
 distance: 	A
 energy: 	Kcal/Mol
#header
@natom 13

#label
L1      L2      L3      L4      L5      L6      L7      L8      L9      L10     L11     L12     L13

#element
Li Li Li Li Li Li Li Li Li Li Li Li Li

#matrix
39
 9.566364769585E+00
 1.692892627998E+00 6.702533273868E+00
 -3.520061398592E-01 -2.141957855537E+00 5.598211115343E+00
 3.150478298411E+00 4.859177758895E+00 -3.469678438064E-02 4.105060669360E+01
 -4.172318591591E+00 -3.922040236155E+00 1.153640496270E-01 -6.810729630348E+00 1.166898918001E+01
 -4.646805010890E-01 5.083021745712E-01 2.502983650055E-01 5.719973635803E+00 -1.917517600182E+00 1.169440635076E+01
 -1.562789935929E+00 -1.154962561856E+00 5.471441843262E-01 -5.458731913413E+00 2.979579319631E+00 -2.462103462977E-01 7.604208009466E+00
 4.067246523105E-01 -7.064270468502E-01 3.058603300137E-01 -1.264176639927E+00 -3.551819252955E+00 4.766652073665E-01 -1.759015602310E+00 5.843230893827E+00
 -8.678409259707E-01 -2.254520444244E-01 3.536517016419E-01 -1.015597509152E+00 1.242103795190E-01 1.089611436253E+00 3.016907178358E+00 1.090131766476E+00 1.050249309213E+01
 6.883060781579E+00 4.198554322388E+00 -2.685898208632E+00 1.255967597555E+01 -2.239860842160E+00 -2.657260271741E+00 -8.352400668973E+00 -4.964433836477E+00 -8.007264010427E+00 6.750871840168E+01
 -5.225317626052E+00 -2.044694491236E+00 2.931679310906E+00 -1.789885935582E+00 7.641127300452E-01 2.657937594737E+00 3.065944091401E+00 3.056373327365E+00 5.856197876968E+00 -5.723078961298E+01 7.176427469333E+01
 -2.214280087990E+00 -1.364309890295E+00 1.413621741537E+00 -1.636849032384E+00 2.835694506896E-01 1.329059818274E+00 1.523967388157E+00 2.005298020658E+00 3.076126059200E+00 -2.943108671912E+01 3.510304291447E+01 2.718462252663E+01
 -1.195616827255E+01 1.042881242534E+00 5.642233111947E-01 1.716959944588E+00 -1.357126804752E+00 1.308734633741E+00 -2.014725373001E+00 -7.396433334806E+00 1.658978127612E-01 -5.640358628168E+01 3.277230728552E+01 1.510704942348E+01 3.028905028335E+02
 -5.429102244402E+00 -3.087087748015E+00 7.283877798357E-01 -5.349819537316E+00 6.973875671097E-01 1.021366326214E+00 3.082920583143E-01 -3.119610592316E+00 2.020921527598E+00 -4.241436911125E+01 2.112944713212E+01 1.150696045211E+01 1.721530025355E+02 1.091720172462E+02
 1.142733212711E+01 3.038448306704E+00 -3.163946055911E+00 1.213297027312E+01 -1.858864501438E+00 -5.204673983227E+00 -3.688027204584E+00 -2.562727559601E+00 -1.022297937466E+01 4.994096455636E+01 -1.103643237819E+01 1.339031683821E+00 -1.305384960415E+02 -8.904518505178E+01 2.469320440637E+02
 -4.866112730010E+00 -2.750951335782E+00 2.097199040669E+00 -5.929314574393E+00 2.883967972785E+00 -1.162524535472E-01 2.643650862243E+00 -4.187603415456E-02 9.018086992408E-01 -3.721671519354E+00 2.926046278080E+00 1.129229123690E+00 -3.685936720176E+00 -2.234398441987E-02 -3.964461568956E+00 1.256112504613E+01
 1.937713774390E+00 6.455209298956E-01 -2.284901158258E-01 -2.140307351973E+00 -2.750424346006E+00 -3.609633644536E+00 -1.106160893484E+00 8.329836094516E-01 6.586854110619E-02 -1.279589881875E+00 -3.808298863476E-01 2.184131549721E-01 2.450315627810E+00 1.403006322858E+00 -2.050917949582E+00 -3.101227474337E+00 1.040558892851E+01
 -5.105689710986E-01 -2.079527878329E-02 -3.224621446280E+00 -8.834985282688E+00 2.291833636846E-01 -6.242925911636E+00 8.413178677575E-01 -1.410036091430E+00 -1.423366789079E+00 4.186790672629E+00 -5.351949868555E+00 -2.815758326592E+00 2.133865972074E+00 1.355503232682E+00 4.124807812686E+00 2.596882175005E+00 8.496684583348E-01 1.192733788802E+01
 2.279290099370E+00 -2.627002892730E-01 -9.685189174223E-01 -6.893031636134E+00 -9.492693379492E-01 -7.624960015113E-01 -9.386651595826E-01 3.446608125938E+00 2.029429366999E+00 -2.848192151053E+00 -1.902133272266E+00 2.197162798343E-01 -5.114093803369E+00 -1.919044140945E+00 -4.791691940690E-01 -4.737492403636E+00 4.481694402336E+00 -1.416786290493E+00 1.216527672756E+01
 1.636320495959E+00 9.175490450215E-01 -3.197869448536E-01 2.823114178181E+00 -3.833307231467E+00 4.125445895896E+00 -4.725236192193E-01 5.758200036010E-01 -3.976138099602E-01 -6.470985540912E-02 -4.465143667243E-01 1.982840254544E-01 -2.559252215203E+00 -1.854642713587E+00 8.782974087891E-01 -3.390191411286E+00 -2.159916387460E+00 -2.261542345164E+00 1.377754456254E+00 9.502234875666E+00
 8.991444145219E-01 -9.247101888027E-02 -1.593151932259E+00 -5.220819927724E+00 3.807521872206E+00 -6.234681159551E+00 8.810162347991E-01 3.287944646982E-01 -1.407846832692E+00 6.432165406626E-01 -3.435908324950E+00 -1.166537229375E+00 -5.435701816167E+00 -2.483776179577E+00 1.599615124189E+00 -1.470036693624E+00 2.249310619081E+00 1.898714132567E+00 3.320320612499E+00 -1.604989069912E+00 1.114856364642E+01
 2.102035945188E+00 8.405636904496E-01 -4.178638201644E-01 6.824855298005E+00 -1.876933066943E+00 1.638794222698E+00 -2.457848259198E+00 1.939072006294E+00 -2.586217922693E+00 3.620501196911E+00 -3.751380492477E+00 -1.044743414289E+00 -8.853965205525E+00 -6.135763953638E+00 4.440112150930E+00 -1.521734128718E+00 1.344105892778E-01 -2.126626546494E+00 -1.502794541507E+00 3.768878237284E+00 6.671475936910E-01 1.090930072245E+01
 -2.679559285807E-01 -2.853276498324E-01 1.168049980788E+00 1.507129725319E+00 -5.008839917385E-02 -9.394753947140E-02 7.681934974013E-01 -7.950877115051E-02 5.610856772571E-01 -5.663198666275E-01 8.829296223415E-01 7.487505056596E-01 2.547580242214E+00 1.075274280944E+00 1.784248049585E+00 7.559124134542E-02 -5.881180182257E-01 -1.712205213348E+00 3.112306211775E-01 -1.555350083259E+00 -1.912120576747E+00 -7.298959571177E-01 5.113476362740E+00
 8.828086316481E-01 3.805806863235E-01 -5.275767994730E-01 2.459986324128E+00 -3.831740688540E-01 -1.529185694530E-01 -3.802544823092E+00 3.848638212105E-01 -7.742352566087E+00 6.437089106364E+00 -4.109689337138E+00 -2.812456070566E+00 -3.011582663132E+00 -3.114555730582E+00 7.072852177219E+00 -3.814671733217E-01 -4.431357350351E-01 1.022330123033E+00 -9.669005798453E-01 7.925068133879E-02 7.884003445679E-02 3.813686167254E+00 -9.345633959072E-01 8.605801473419E+00
 3.101911634961E+00 8.007708410326E+00 -6.506145326193E+00 -2.977732656877E+00 6.245711709592E-01 4.579834914261E-01 -2.334993543260E-01 -3.046304577687E-01 1.255316358700E+00 1.963831929909E+01 9.293003529226E+00 5.280847565531E+00 -2.296255947841E+02 -1.301219787220E+02 1.033999433982E+02 1.219860883997E+00 2.014947924473E+00 6.675347736855E+00 2.952186841631E+00 1.126630898519E+00 8.269831894108E+00 -3.361856709679E+00 -1.037401221041E+01 1.540164827007E+00 3.222872362944E+02
 9.094666406849E-01 -2.401298160496E+00 1.601409166155E+00 3.243290831735E+00 -1.440672134063E+00 -7.628066566987E-02 -8.731159591249E-01 6.873334157699E-01 -5.445488623037E-01 -1.429246424058E+00 -1.043672453550E+01 -6.677323869001E+00 7.549628622355E+01 4.190715898160E+01 -2.958128221549E+01 -2.544339800959E+00 6.799886707632E-01 -2.827451334564E+00 1.503894798296E+00 1.033589220229E+00 -1.425161442516E+00 3.975873367887E-01 8.217253458682E-01 -4.008670457957E-01 -1.134233410846E+02 4.949601184983E+01
 -1.724453150999E+00 5.252696951570E+00 9.207510800339E-01 -7.347758828749E+00 2.380649422609E+00 -4.863554428360E+00 -3.653323686774E-01 -6.170197678213E+00 -5.713245894243E+00 -8.892023765212E+00 2.677604187994E+01 1.312070129646E+01 -2.980608479609E+01 -2.578257062085E+01 -9.641805740138E+00 -2.056123864169E+00 1.867060654945E+00 1.848290536636E+00 -7.576158447356E+00 -5.367812854908E+00 -5.451356757689E+00 -1.390260982850E+01 -3.029352723717E-01 9.825238543829E-01 1.022294371885E+02 -5.267227315008E+01 2.796557333080E+02
 7.635542381259E-01 1.021107416253E-01 -2.108250279760E+00 3.464467674302E+00 -2.222940101427E-01 -1.709970084133E-01 -4.294463772003E-01 -4.270252570082E-01 -1.654173022103E+00 9.029721247705E+00 -8.492009718040E+00 -3.838305456192E+00 9.993173654403E+00 3.127150129858E+00 1.316341410117E+01 -3.715884511820E+00 -2.132811833609E+00 1.989097619716E+00 -1.218452661976E+00 -5.305085659225E-02 7.392776819639E-01 2.204418610659E+00 -1.036744870341E+00 2.083542866620E+00 -2.772814550837E+01 1.277552687109E+01 -1.975395797188E+01 1.874820850461E+01
 2.738577261064E+00 -2.076795044970E-01 -1.732087999260E+00 -2.558509879491E+00 7.634696751536E-01 -1.740553025155E+00 -1.963287559721E-01 -1.226784022203E-01 -2.649766085859E+00 1.323991706984E+01 -9.973014068932E+00 -4.090322443701E+00 -1.203318257027E+01 -1.146827063183E+01 3.016134532247E+01 -3.483064383094E-01 -8.386651537523E-01 5.481686705508E+00 1.068481260295E+00 -4.236392354732E-02 3.515738320552E+00 1.875532688500E+00 -2.965347059660E+00 2.976930054313E+00 -2.852227551894E+00 -7.989469852508E-01 5.949078519965E+00 1.789507639145E+01 4.240052416173E+01
 4.320119220609E-01 8.833502518421E-01 -3.197743595054E+00 7.978910460021E-01 -7.630642389907E-01 7.272084514006E-01 -7.066778069860E-01 1.015096396931E+00 3.425387726557E-01 1.051991989444E+00 -2.538300059979E+00 -1.351335883016E+00 -5.396916440532E-01 -1.816902783543E+00 3.597409484227E+00 -1.176632022348E+00 5.046184645627E-01 3.018612623421E-01 2.612847518548E+00 1.456105572350E+00 2.287701606733E+00 2.816362753018E+00 -1.719485604812E+00 6.560853052963E-01 -2.512985368124E+00 1.994469148445E+00 3.535414814628E+00 2.660320833786E+00 4.937487807867E+00 2.030596457350E+01
 -6.518382020981E+00 -4.585809373563E+00 1.270034938384E+00 -2.155909651183E+01 4.009729177002E+00 2.911644145065E+00 5.185914464102E+00 7.224587573921E+00 9.440999922028E+00 -2.666743102851E+01 1.829058688215E+00 -4.699194152182E+00 -8.760680114808E+00 8.252275369300E+00 -1.310902567886E+02 5.934178823271E+00 1.527625076762E+00 -1.790251118722E+00 6.874738951285E+00 6.704194805168E-01 4.498556709760E+00 2.339485533972E-02 -3.526257085230E+00 -5.363631004540E+00 4.292421986082E+00 -3.232830227152E+00 -6.696476881338E+00 -1.217655358368E+01 -1.620728191038E+01 -2.251445184991E+00 1.059569030987E+02
 -1.528457123829E-01 6.055193687456E-01 -1.050486079007E-02 2.918472782073E+00 -6.924228265508E-01 2.014632766686E+00 2.324596623910E-01 1.672559663018E+00 2.278901685675E+00 5.262808800567E+00 -1.236685149902E+01 -3.681711977267E+00 -2.098486558635E+01 -9.744169778056E+00 -4.446001626611E+01 6.364172591397E-01 -2.066307966335E-01 -1.684725397621E+00 3.290233498662E-01 9.253681207332E-01 7.892985155402E-01 2.499996055569E+00 -1.626913824409E+00 -2.901256988327E-01 1.270759777269E+01 -4.222811888247E+00 5.436981301700E+00 -2.902845494550E+00 -4.284142257088E+00 -5.279869488332E-01 3.529968682305E+01 2.227270244220E+01
 -1.747649451329E-01 5.200154494474E-01 2.451538614239E+00 4.236371920381E+00 -8.169847670286E-01 2.201073902727E+00 8.667449757309E-01 2.231461333008E+00 2.820424550364E+00 5.144923000867E+00 -1.154875109554E+01 -1.356112789999E+01 -4.590238760165E+01 -2.333182982149E+01 -7.451373050147E+01 8.723132339725E-01 -3.877104168822E-01 -5.527607268092E+00 -1.193566302445E+00 5.870378445826E-01 -2.343835618848E+00 1.626836090561E+00 2.583298687550E-01 -1.269446092631E+00 2.226091052854E+01 -9.494419601023E+00 3.289923779163E+01 -8.628575807221E+00 -9.798064685177E+00 -2.745422591327E+00 6.252966716633E+01 2.903444027244E+01 6.699755287455E+01
 -3.801589211026E+00 -1.419487956092E+01 3.179403365157E+00 -3.849747151286E+01 9.921510724925E+00 -4.742789163717E+00 8.889858748590E+00 8.968325525202E+00 3.625055539712E+00 -9.727309496646E+00 9.309018190075E+00 9.109107898255E+00 -8.065969238412E+01 -3.475534980990E+01 1.140308634437E+02 1.294007931297E+01 -4.214050278286E+00 4.177430086819E+00 7.924651435417E+00 -1.929428236688E+00 4.696982783020E+00 -3.368476604341E-02 3.586195903971E+00 -3.915689885907E+00 1.872505396306E-01 7.425105266742E+00 -1.633064500620E+02 5.571343189747E+00 6.621162918936E-01 -8.354508390524E+00 -2.407762707918E+01 -2.903254977133E+01 -5.178793492190E+01 2.502198076115E+02
 9.453648644170E+00 4.342298985429E+00 -2.295799569424E+00 4.107636726764E+00 5.231848431324E-01 -5.864882638112E+00 -3.269980062695E+00 -4.607477089707E+00 -1.013319260969E+01 8.882244353955E+01 -6.304204877432E+01 -3.345045809496E+01 -2.244504277278E+02 -1.399414482587E+02 1.405682925256E+02 -1.320497017515E+00 -1.846591751246E+00 5.095003490448E+00 -2.841122521003E+00 -1.580433751480E+00 8.982297940922E-01 3.519538404085E-01 4.663388998333E-01 6.545580634468E+00 1.942441546938E+02 -6.539211644961E+01 7.183960720544E+01 -1.135082634537E+01 3.615227829264E+00 -1.029738982451E+01 -3.702707619193E+01 6.190175228124E+00 2.431808371232E+01 1.886174735865E+01 2.541006280610E+02
 -8.550335123155E+00 -7.902546435248E+00 3.094765501014E+00 -6.591307206240E+00 -2.958192876737E-02 2.682571946843E+00 4.873816844517E-01 1.443371753836E-01 4.722452252916E+00 -2.176703196376E+01 -3.500161700409E+01 -2.548243177299E+01 2.726184317160E+02 1.677128879129E+02 -2.047046007252E+02 9.953168029773E-02 1.328681867829E+00 -2.772282144851E+00 2.919939403638E+00 2.806506006307E-01 -2.633820939540E+00 8.278368136417E-01 5.315752462342E+00 -5.395898530785E+00 -3.288492458941E+02 1.245425455533E+02 -2.272115771182E+02 1.605490608834E+01 -3.153332590251E+01 -1.223062618889E+01 6.644070292873E+01 8.570117894624E+00 -3.332015172843E+00 2.061240924966E+01 -2.308725688850E+02 5.088008226953E+02
 8.583464032746E-01 2.205414327175E+00 5.415374636681E+00 1.254833492106E+01 -2.790826081418E+00 -2.876444382415E+00 -2.875525042779E+00 -5.827726721214E+00 -6.304321487453E+00 -1.151940575629E+01 1.919613859488E+01 1.049454118321E+01 9.247380650683E+01 4.230705141089E+01 -3.877518925290E+01 -7.120748340496E+00 1.427440318515E+00 -7.921513921360E+00 -8.943421698001E+00 -2.933961552315E+00 -1.248893602751E+01 -7.952623017877E+00 7.705264686881E+00 2.245382068177E-01 -8.975235846638E+01 1.975171552704E+01 1.591979927765E+02 -4.506404476504E+00 -3.283863856715E+00 5.170514354169E+00 -2.850778183973E+01 -6.813355940728E+00 1.014946266197E+01 -1.289356163880E+02 -3.558165493704E+01 -1.430321937752E+01 1.842333971949E+02
 -3.527803993566E+00 -5.588667658786E-01 -1.221232716349E-01 4.546069716691E-01 1.823630430925E+00 2.498465147655E+00 1.477618825521E+00 -4.807797578336E-01 1.953255957635E+00 -1.334404301508E+00 1.093540116878E+00 -8.001922487778E-01 -1.768108491793E+01 -6.169061808291E+00 4.164794309060E+00 6.997710745413E+00 -5.195912121809E+00 2.257660278806E+00 -4.644417452726E+00 -1.482032807727E+00 -6.344669735884E-01 6.859790256050E-01 -1.209090706017E+00 -6.910948655086E-01 2.905757562669E+01 -9.933237330894E+00 -2.920632635975E+01 -7.282255748364E+00 -1.607811367936E+01 6.872001818675E+00 5.765872599493E+00 1.477618047176E+00 -1.571608093418E+00 2.539223839566E+01 7.172262228318E+00 -2.555333311316E+00 -3.536163577595E+01 2.954004415452E+01
 1.217632749953E+00 1.164138702709E+00 -2.375798289837E+00 5.334821371878E+00 -1.171311433075E+00 2.724523780965E+00 6.443130360563E-01 2.160452813499E+00 3.602493591600E+00 6.035589072562E+00 -3.022515085689E-01 -2.735159433960E-01 -7.666425830667E+01 -3.877120704348E+01 4.278597603481E+01 1.468009823092E+00 -3.637338989702E-01 8.832201312478E-01 2.261342551625E+00 2.346672995755E+00 3.817795925583E+00 4.247285740350E+00 -3.160958941730E+00 -5.177843388116E-01 8.649859359952E+01 -2.443881568142E+01 -8.008111274317E+01 -5.362996460305E-01 -1.478146589015E+00 -1.222905601250E+01 4.799649320054E+00 2.530698712780E+00 -4.076642588300E+00 7.267612005774E+01 4.364949425935E+01 -3.553735980277E+01 -1.079827993701E+02 1.783496761216E+01 8.127726025459E+01

