#BIOSYM hessian 1
@Type: Hessian Update
@Units
 distance: 	A
 energy: 	Kcal/Mol
#header
@natom 19

#label
L1      L2      L3      L4      L5      L6      L7      L8      L9      L10     L11     L12     L13     L14     L15     L16     L17     L18     L19

#element
Li Li Li Li Li Li Li Li Li Li Li Li Li Li Li Li Li Li Li

#matrix
57
 4.746713277041E+00
 -8.853044700194E+00 2.260218752758E+01
 -4.319797194019E+00 1.992551932999E+00 2.651554445057E+01
 -5.161295078170E-01 3.013351762258E-01 -6.572155380849E-01 9.773858881760E+00
 4.688448567911E-01 1.265102348546E-01 -1.964316269592E-01 4.882702263518E-01 1.436786933932E+00
 -3.027471326935E-01 -3.819499071872E-01 -3.521287967335E-01 1.884914740932E+00 -1.181336573971E+00 2.171157351735E+00
 -1.951611231902E-01 -1.955996377719E+00 3.217686369834E+00 -1.345952691458E+00 -4.716413546151E-01 2.844632936329E-01 1.298295252461E+01
 -7.606284289435E-01 -1.193228596630E+00 3.551204455775E+00 1.742147513393E+00 -9.922431004607E-01 1.427866032127E+00 7.531626690637E+00 1.648718019712E+01
 4.945635728712E-01 2.652113668150E-01 -6.153186781242E-01 -2.034792577077E+00 9.692715791606E-01 -1.735559895451E+00 -4.420353810904E-01 3.463449119601E-01 2.392716490446E+00
 -4.762778876117E-01 1.414395387564E+00 -1.090364269940E-01 -5.678382620099E-01 -7.220740103233E-01 7.108998941847E-01 -7.714781988236E-01 -6.023318943642E+00 -1.064352035973E+00 8.774980901470E+00
 -9.082891303383E-01 6.373064598470E-01 1.050925298529E-01 -8.119286547459E-01 -6.898671338424E-01 1.004723504159E+00 -1.907360240208E+00 -9.629725861124E+00 -1.773744878130E+00 8.742369897933E+00 1.708660229799E+01
 5.039767305076E-01 -7.701222374560E-01 1.184692404088E+00 1.388587984846E-01 9.484955390177E-01 -4.563453600310E-01 3.171874836372E-01 -3.947291028769E+00 1.356018972160E-01 3.622766698022E+00 7.289199120966E+00 6.776631805902E+00
 3.955817147996E-01 -7.658200275958E-01 1.594352272565E+00 -4.319041754592E-01 1.128148863449E+00 -4.541569763353E-01 6.177792134592E-01 1.430370223213E+00 8.387520423478E-01 -7.559976257901E+00 -2.535183357864E+00 -7.781352104885E-01 1.789524065405E+01
 -3.700293764756E-01 1.576728087531E-01 -1.096709713534E+00 1.328759258408E+00 5.750740673910E-01 -1.589913071389E+00 3.912331984533E-01 3.337360428428E-01 1.292084351410E+00 -1.336622613702E+00 -1.458134379685E+00 -1.008342643310E+00 -1.110511065787E+00 1.742489092456E+01
 -2.085227249562E-01 7.585067238175E-01 9.704853446517E-01 -5.646081434398E-01 -5.467494307991E-01 8.271158981890E-01 6.902603852808E-01 1.151370961211E+00 -3.284196345498E-01 -3.744216716943E+00 -1.426806966789E+00 -1.723123293721E+00 7.844605720442E+00 2.156226404594E+00 1.026143639579E+01
 4.801533169037E-01 1.093010824795E+00 -1.034484200621E+00 -3.460029114059E-02 3.652412115101E-02 -8.845561408418E-01 -6.219334833154E+00 -2.753511329189E+00 5.514083128543E-01 2.249821932859E+00 2.570508477486E-02 9.173335757967E-01 -9.278205540739E+00 3.607348462174E+00 -4.347275416744E+00 1.601230338859E+01
 2.228005961087E-01 1.969679930250E-01 1.448076129425E+00 -4.927838980352E-01 -4.302904984492E-01 -4.526913188531E-02 -6.408125909694E-01 -3.554026217964E-01 5.582954346314E-01 1.643932578795E+00 -1.711675526446E+00 -1.020502175881E+00 2.265759312049E-01 -5.013728432455E-01 2.798479123907E+00 -3.418496061703E+00 1.998917385089E+01
 5.274093965884E-02 -6.557061222281E-01 -2.149820992096E-01 -2.927523412546E-02 -3.304496747838E-01 -6.664975640302E-01 -6.932076780721E-01 3.134432980154E-01 -2.721541779085E-01 -7.826184902299E-01 -1.460085438898E+00 -1.014888551018E+00 -2.448107838064E+00 1.044523497253E+00 -1.022999298591E+00 -8.434993336823E-01 2.172407408688E+00 1.632743519120E+01
 -2.323198790039E-01 8.517803324950E-01 -8.346806799007E-01 1.661477651959E-01 -3.772023086844E-01 -7.509947924448E-01 1.589995693495E-01 -6.203693824887E-01 5.507814723994E-01 -8.612579821909E-01 -6.572449043951E-01 -1.910554497725E+00 -2.527881225550E+00 1.729574061462E+00 1.991765075750E+00 1.430955532003E+00 -5.181227798409E-02 2.240813450767E-01 1.411366570477E+01
 -1.745439558356E-02 8.214139015856E-01 -1.873552793389E+00 2.064804534679E+00 -1.973410934014E-01 6.058338619420E-01 -1.717643120609E+00 -1.422324344653E+00 -1.101113370418E+00 -9.147771333877E-01 -4.474202371510E+00 -3.872234262365E+00 3.316602080085E-01 -8.584293778253E-01 -1.449265824568E+00 -9.746910652276E-01 6.496030859569E-01 -3.556390019626E-01 -4.078683035785E+00 9.138681242195E+00
 -6.705352486335E-01 2.000797930865E+00 -1.488111168892E+00 -5.901902197246E-01 -9.799560783500E-01 5.621131125655E-01 -1.217084235815E+00 -5.932311333273E-01 -8.571635623634E-01 -1.905042042764E+00 -5.597724460921E+00 -6.365561345729E+00 -1.672325640183E+00 -3.284858236576E-01 2.678375206641E+00 5.323892337430E-01 -3.263936770509E-01 2.187379311649E+00 3.252928100914E+00 3.918257086302E+00 1.221573872150E+01
 3.634683105519E-01 1.743142256015E-01 -1.055896473986E+00 -1.218245188534E+00 -1.245216816810E-01 1.223731167415E-01 -7.460183575807E-01 -2.164522094896E-01 4.521726455172E-02 -1.612332491513E-01 -7.169493997331E-01 1.698342259962E+00 -3.208372167890E+00 4.007749484698E-01 1.163758377645E-01 3.786685109932E+00 7.040781353778E-01 -1.936620240231E+00 2.255782196233E-01 -2.064924931785E+00 -3.522564928158E-01 1.399281171717E+01
 9.010014934055E-02 -6.892830342808E-01 5.228393771252E-01 3.233150186880E-01 3.125494982076E-02 5.654307797741E-01 -8.269141948613E-01 3.684395590029E-01 1.490459694920E-01 9.344629727104E-01 1.306142213678E+00 5.010289484481E-01 5.570547102806E-01 -7.487014434925E-01 -9.777009067248E-01 -1.094165754426E+00 -3.733204853617E+00 -4.761067536158E+00 -1.417433399064E-02 -1.364780715438E-01 -1.238968473629E+00 -2.706814494637E+00 7.349950238892E+00
 -1.918191640784E+00 2.180429154155E+00 4.535508512320E-01 8.796772776482E-01 6.419345451436E-01 -1.291633131104E-01 7.287677165823E-02 4.894664149269E-02 7.100204372396E-01 3.132798980607E-01 1.547295056196E+00 -6.907448364504E-01 9.930460967266E-01 1.286329411130E+00 -2.608696190717E+00 -3.892523309040E+00 -4.462110935995E+00 -6.252923523383E+00 -8.716560240839E-01 8.178264354016E-01 6.949628038160E-01 1.505866144705E-01 4.106283284933E+00 1.299365632994E+01
 4.146748426811E-01 -2.629420210995E+00 5.024087239168E-01 -9.913160380500E-02 -1.006045885059E-02 3.783510392956E-01 -3.210892979186E-01 9.186148285514E-01 1.459417138479E+00 6.760719304032E-01 2.583138044745E-01 -1.373501131486E-01 1.643986187158E-01 6.081136062719E-01 -1.173307847525E+00 -3.136509473538E-01 -3.744337409145E+00 8.149853906353E-01 -9.160774196203E-01 -1.480782922789E+00 2.025483894580E+00 -2.179729659647E+00 -1.756275299887E-01 3.878497538628E+00 1.598229926125E+01
 -6.384734559383E-01 1.040579438290E+00 3.478428467662E-01 -1.355136079205E+00 -6.285860275995E-01 -1.020190255418E-01 2.145720467812E-01 1.433205539362E+00 -5.951053834865E-01 -3.034583758350E+00 -2.480053820961E+00 -7.055459309903E-01 1.463195946468E+00 -1.051027603519E+00 1.423403365456E+00 1.912535364417E+00 -9.745450554859E+00 2.224162519365E+00 1.969258959293E+00 -1.293037222818E+00 -8.369779767417E-01 1.316002560776E+00 -1.198920305921E+00 -2.530374018570E+00 -3.397130857475E-01 1.779278678797E+01
 1.137064357832E-01 1.981539386226E-01 -2.894717874950E-01 -6.604705638971E-01 -2.998726232880E-01 2.498294755634E-01 -4.251234645862E-02 2.796604279444E-01 -1.219492626731E-01 1.579534119643E-01 2.496433568584E-01 2.033192620022E-01 2.532652140833E-01 3.602103776111E-01 8.140324881428E-01 3.172209470232E-01 3.643820447555E-01 -1.117626349981E+00 1.703102189164E-01 2.219731711597E-01 -9.371384927047E-01 -2.197337117256E+00 3.627606542431E+00 -2.412735311305E+00 -4.140244244572E+00 -2.230740817090E+00 5.039981176804E+00
 4.274015244365E-01 2.181603299863E-01 -1.127847677526E+00 8.733315864587E-01 5.984865353620E-01 -3.956779917297E-01 -7.186091264606E+00 -1.966649365545E+00 1.478466095399E+00 3.839992154225E-01 -1.189169137874E-01 -1.373636010507E+00 -6.441397222397E-01 -2.880147859297E+00 -1.702236995651E+00 2.229135570821E+00 7.500248048960E-01 2.936254772070E-01 -4.066182431891E-01 1.797266537084E+00 8.903818328829E-01 -7.927732269493E+00 1.725328989963E+00 -1.728478089477E-01 4.198973929820E+00 -2.845730700784E+00 8.435815538338E-01 1.276649740451E+01
 3.318421411174E+00 -1.253421491111E+01 6.437175584318E+00 -3.298808834408E-01 -1.816700538876E-01 2.446297899651E-01 -2.722464344572E+00 -1.508686483399E+00 -7.086934777202E-01 -1.149500880366E+00 1.366588100815E+00 1.868120022069E+00 -3.450927484391E-01 -6.654687078273E+00 -2.637965434878E+00 1.676670595857E+00 1.629626228323E+00 -1.744216115096E-01 -1.702709699660E+00 -4.973781202393E-01 -2.186506754391E+00 1.266700302056E+00 -3.224465782081E-01 -1.402936516995E+00 -6.470673123419E-01 -9.025832920720E-01 -5.143695221527E-01 2.787623046134E+00 2.050660059845E+01
 -8.280468276893E-01 3.581970813012E+00 -2.306394403709E+00 3.093149009768E-01 2.017686232102E-01 1.145422633956E-01 6.168884267283E-01 -6.647116712358E-01 -1.303319215425E-01 1.256907725106E+00 -3.991724637172E-01 3.360000916448E-01 -1.760776151751E+00 -2.486172040129E+00 -1.434445435296E+00 2.058801593782E-01 4.566856276616E-02 -4.116703107512E-01 -3.696482094217E-01 9.211113465193E-01 4.441782450192E-01 8.594558706495E-02 -6.470069160871E-01 -4.819613783287E-01 1.189462043697E-01 -3.377988922683E-01 -1.825720951193E-01 3.362934411868E-01 -2.375532179701E+00 2.487718666149E+00
 -4.411132899697E+00 7.202602162291E+00 6.646508376061E+00 7.288710788918E-01 -1.279422441441E-01 1.215939526033E-01 1.226823890103E+00 2.852515464509E+00 -8.535626204734E-01 -3.414885691022E+00 -2.987574339783E+00 -1.788475941580E+00 3.065495580491E+00 1.605484114815E-01 2.840890079982E+00 -1.605518423907E+00 2.235173593501E+00 -4.402449129428E-01 7.043280459526E-01 -5.068692675881E-01 2.231248112568E+00 -2.722323218497E+00 -3.822735952165E-01 2.989092665337E-01 -3.427513151868E+00 -3.113107094229E-02 9.275444410692E-01 3.937728871500E-01 1.198082905348E+00 4.746042874696E-01 1.164063327044E+01
 5.636018687594E+00 -8.131406581792E+00 -6.606103743211E+00 -2.413024766598E+00 2.408418095807E+00 -2.488020258703E+00 2.304023817369E+00 1.485322237605E+00 3.006046575933E+00 -2.825666364330E+00 -5.269408533081E+00 1.523236354210E+00 2.473383350153E+00 1.890107854213E+00 4.604320696179E-01 -8.885132038398E-01 9.165646931755E-01 8.032064894791E-01 -1.006595737430E+00 -3.277191012393E+00 -1.638062701433E+00 -1.252742405459E+00 8.032626320256E-01 -1.696522212105E+00 7.572783869425E-01 -5.383457817606E-01 6.367722872725E-01 6.345021536712E-01 -1.258863145410E-01 2.009116531338E-01 -1.250031585863E+00 1.769513279418E+01
 3.448224465795E+00 -5.844750756100E+00 -2.815566198895E+00 1.335415047904E+00 1.185220403872E+00 -4.271330319717E-01 -2.636565885072E+00 -5.962153201635E-01 7.402591747951E-01 -8.974324101743E-01 -4.814904138881E-01 8.884048777392E-01 8.974363899371E-01 1.049586970590E-01 6.548336528878E-01 2.792638073942E-01 6.054504462926E-01 -7.564718582748E-03 4.870743336666E-01 -1.702299091019E+00 -7.458726001168E-01 2.565071509702E-01 8.694298245083E-01 -6.120690819746E-02 -3.332609297399E-01 -2.089968505740E+00 1.346883384697E-01 2.315625932507E+00 2.148493204706E+00 -9.670546453685E-01 -2.241345602682E+00 6.405023944823E+00 5.935508304047E+00
 -5.843686844479E-01 1.222725763225E+00 -5.657233743847E-01 -2.996079785455E-01 -5.623937760237E-01 1.540780796154E-01 -6.751582074625E-01 -1.387721133582E+00 -6.502189006791E-01 -8.691386886689E-02 -3.160837419055E-01 -2.040947194011E+00 6.338060562402E-02 -6.951142639461E-01 6.310529883813E-01 -3.112733596194E-01 -7.055644099565E-01 -2.712006769633E-01 2.477230838653E-02 3.287364838779E+00 2.439249301876E+00 -9.756130583331E-01 -2.832860402914E-01 6.365207275026E-01 -1.174934839886E+00 1.951422186312E+00 -5.100470409797E-01 9.036223458507E-02 9.759461776191E-03 -1.996285666867E-01 -6.439031162160E-03 -3.696136692884E+00 -1.997024676444E+00 3.587675741429E+00
 7.330570010570E-01 -2.328106744466E+00 -1.159922124238E+00 -6.034377079603E-01 -1.583907858651E+00 8.394844384362E-01 1.257316740355E-01 -4.255461508907E-01 -8.735037335005E-01 5.842065835313E-01 8.349693421735E-01 -1.931143365682E+00 -1.071495251997E+00 -3.341618677890E-01 -2.091646651158E-02 6.883633357593E-01 -1.101879463645E+00 4.303198570260E-01 9.983375408831E-01 3.227766680570E+00 1.361568208692E+00 2.400466494277E+00 -2.012666570795E+00 -9.959105786153E-01 3.678585328131E-01 1.662928461582E+00 -1.249598457156E+00 -2.041121374095E+00 7.743132645811E-01 -9.050357510294E-01 -5.310754757355E+00 -7.718551442040E+00 -2.885703327272E+00 3.409214505426E+00 9.909498374119E+00
 4.525925757773E-01 -2.344570736193E+00 -8.258967179408E-01 -3.699800641752E-01 -1.804669636382E+00 2.382859020119E+00 -2.291198626696E-01 -2.076052028397E-01 -1.947859681182E+00 9.210454684913E-01 1.956687875277E+00 -1.080541390521E+00 9.726733842946E-01 -1.666969512673E+00 1.261641395376E+00 -2.579243358911E+00 -2.877616418597E-01 1.795697029339E+00 -1.483690343219E+00 1.923722404671E+00 6.053707998231E-01 -1.363543904055E+00 9.219639694865E-01 -2.501385247662E+00 1.032766154020E+00 -4.930078314120E-01 2.144083923160E+00 4.154956863148E-01 -3.998464280050E-01 -1.569494286497E-01 -2.360584088742E+00 -3.659321618826E+00 -8.625691600104E-01 -1.098204555435E-01 2.780642957309E+00 7.667706885294E+00
 1.181179112383E-01 -1.242493919750E-01 -2.382063920109E-01 -4.001262715656E-02 1.204082749803E-01 -7.837780684602E-02 -4.373775697348E-01 -2.075149823573E-01 1.568114011188E-01 7.337769077402E-02 6.792211160551E-01 5.328468018287E-02 9.374409180966E-01 -1.637134425670E-01 2.420666953682E-01 -7.409079326900E-01 9.472232861599E-01 2.967175546981E-01 -5.116326522381E-01 -1.387912045331E-01 -9.678188887146E-02 -1.462333984215E+00 1.920290622967E-02 3.746097910159E-01 1.028203033218E-01 -1.563019092409E+00 4.589298312053E-02 1.223656747519E+00 8.118323995633E-03 -1.763470955028E-01 2.224328463999E-01 7.531240793309E-01 7.144854881970E-01 -3.219464107090E-01 -7.630987195142E-01 -1.342953535972E-01 7.983024411050E-01
 5.439779656265E-01 -1.625343219732E+00 5.199643638467E-01 -7.560657789498E-01 -1.153473752978E-02 -2.688540847904E-01 -2.323623443501E-02 -5.984799858528E-01 1.941823937412E-01 4.384661166889E-02 -3.218744974802E-02 1.359514007413E-01 -1.290669040972E+00 6.769248501652E-01 -8.690026282992E-01 1.296286001560E+00 -4.890644151884E-01 3.805316467521E-01 1.118500447295E+00 -4.615130869059E-01 3.697187848889E-01 1.380234741681E+00 -6.440814418849E-01 -5.927478769668E-03 1.026341382252E+00 -2.011993431845E-01 -5.018893315072E-01 -5.276827893765E-01 1.230163084455E+00 -1.415215282952E-01 -8.053312928639E-01 7.762056729356E-02 1.704632057373E-01 -5.000015996349E-01 4.736250135349E-01 2.479984843257E-01 -2.468805759192E-01 1.015088132007E+00
 6.264455703316E-01 -1.178627239236E+00 -1.482971839942E+00 3.434310795418E-01 1.766076227766E-01 7.649825271741E-02 8.841441087046E-01 1.139283285889E+00 6.151527427857E-02 -6.436434503797E-01 -8.079356440415E-01 -5.522298092829E-04 8.932511562377E-01 -1.315283629075E-01 1.339588355151E-01 -5.516749742522E-01 4.617858023456E-01 -6.909395198214E-01 -8.592565931826E-01 -1.087562565650E-01 -6.511354093316E-01 1.921699376203E-01 -2.596904967538E-01 -3.318337692488E-01 -3.159392274170E-02 -3.039155874641E-01 -4.651006429005E-02 -3.489643637643E-01 2.314656508209E-01 1.470138789360E-01 9.116049196698E-03 1.360300976883E+00 3.660126912321E-01 -3.894113287660E-01 -4.479572129715E-01 -1.069257239953E-01 -7.049162605513E-02 -1.706454589568E-01 7.073558155851E-01
 -2.619219819932E-01 9.706307854886E-01 5.802422967122E-01 -7.825117154837E+00 -5.031493096654E-01 -1.843675743266E+00 1.646221836404E+00 -1.959613434949E-01 6.410341292756E-01 -4.919830962473E-01 1.038525649816E+00 -1.039977017385E+00 3.906262341048E-01 -9.138672782422E-01 -3.707665744473E-01 9.591124059057E-01 5.559825581115E-01 -3.004094097433E-01 -2.607403332852E-01 -8.057356130564E-01 -1.819055880925E-01 5.332663953641E-01 7.330377585835E-01 -8.479148139311E-01 -1.004160384709E+01 -1.384930610012E-01 3.372503655010E+00 -2.971805850234E+00 1.187542948150E+00 -1.166994199963E+00 2.089201223589E+00 6.692193690939E-01 -8.608907042973E-01 1.217607925170E+00 2.101057645585E-01 -8.927385799606E-01 6.072360089923E-01 -1.109807184079E-02 -3.700978145184E-01 1.622504456671E+01
 4.320062366827E-01 -1.001857043220E+00 -1.522236852030E+00 -1.927295167734E+00 -4.774699059165E-01 -2.586611776680E-01 -3.145342053919E-01 4.320257177205E-01 8.727268454622E-02 -3.109903347909E-01 -3.392426193350E-01 -1.221530682023E+00 3.106578009249E-02 -1.650729028731E-02 -7.025283824518E-01 1.590836638701E+00 7.416459186603E-01 -3.924681172574E-01 -1.137676554556E-01 -2.608183889358E-01 7.560294977123E-01 -1.193527494139E-01 3.971258955632E-01 1.024398677354E+00 -1.958958599667E+00 4.315468391345E-01 3.046621102303E-02 -9.508417688010E-01 1.135693327566E+00 -7.832365939590E-01 7.864180665645E-01 1.264114745364E+00 1.454451898765E-01 7.782286527321E-01 -4.267754034554E-01 -1.578436624792E+00 4.813667420043E-01 -4.402356350968E-02 -6.037771910218E-02 5.054479540687E+00 4.282179334802E+00
 1.933160240433E+00 -1.687107664139E+00 -1.658618028101E+01 -1.585141582613E+00 -9.006954103971E-01 5.554930030743E-01 -2.016866923815E+00 -1.301115243659E+00 1.357966753847E-01 -3.050518837012E-01 1.503938074796E+00 -1.665386702600E+00 -5.440738872413E-01 2.424377221510E-01 -6.864064845332E-01 1.407011226470E+00 -2.848440034588E-01 7.787012051602E-01 3.751726881109E-01 -2.626423728943E-01 1.546462185444E+00 -1.360194520084E+00 -6.422695700108E-01 8.988370497027E-01 9.673954554499E-01 5.434030723756E-01 -7.025169964605E-01 1.373682394087E+00 9.096611389114E-02 2.931722676618E-01 -1.084309687917E+00 2.968191160830E+00 -2.836133682393E-03 1.686033261590E+00 7.765426050448E-01 -8.604063787022E-01 6.991775871489E-01 -5.291546797477E-01 8.629686184765E-01 2.658875542991E+00 4.340181639022E+00 1.730893000235E+01
 1.698092441151E+00 -1.548413582712E+00 -1.345498581094E-01 -3.148341001773E-02 3.787384887285E-01 5.759740694272E-01 -2.561737702225E-01 2.186341311399E-01 -5.173486696454E-01 -5.594306392171E-01 6.736662880900E-01 1.768642621082E+00 2.232581336500E+00 -2.619573045377E+00 2.317896875683E+00 -2.310232254764E+00 9.731546414303E-01 4.823084851731E+00 -1.922954770308E+00 -7.803564954112E-01 -8.841871979230E-01 2.163996694850E+00 -5.608948579285E-01 -3.577532833536E+00 -4.681039310979E-01 -3.075121708982E-01 -3.374210868042E-04 -1.678650673149E+00 6.063828924804E-01 -5.535861400393E-01 -2.057279597682E+00 4.746944481298E-01 8.719296782030E-01 5.593861815928E-01 2.231990785013E+00 1.044571292193E+00 -2.449784809681E-01 -7.041152970394E-01 9.991456181754E-02 -1.943711506644E+00 -2.054765891886E+00 -4.277519433783E-01 1.313866717952E+01
 -8.548686329383E-01 2.367661177485E+00 2.234562229726E-01 3.389925003579E-01 1.536795934450E+00 -7.344122880084E-01 5.527118693454E-01 -1.461071548403E+00 -2.094986466483E-01 -1.208735269837E+00 -3.408040274334E-01 -1.755651581143E-01 1.865729173906E+00 -7.920617906372E-01 1.480521891247E+00 -5.363240722860E+00 -2.029776542629E+00 8.739576477541E-01 6.592748905746E-01 5.950816250218E-01 1.432233636897E+00 -2.063568759308E+00 3.910375873544E-01 4.772862705418E-01 -5.579207686493E-01 -1.113443107184E+00 6.001317053362E-01 2.038008956031E+00 -2.430037266701E+00 8.341817051445E-01 1.837724060830E+00 -3.047420369076E-01 4.289836820288E-01 -1.009164806752E-01 -1.310930606778E+00 1.702164853293E+00 -3.297620576718E-01 -6.479256513333E-01 5.501437541814E-01 -2.667184520760E+00 -5.451060709216E+00 -4.335484172060E+00 5.393235883173E+00 1.778874335859E+01
 -6.328326636847E-01 1.451816326180E+00 -1.879999354618E-01 1.316819217825E+00 2.776340693608E-01 -1.778613507087E-01 9.706117122919E-01 -7.003384755980E-01 3.364372193270E-01 4.755759457072E-01 -9.861164741805E-01 6.528317915160E-01 -1.294336699675E+00 1.054131258953E+00 -6.575595344718E-02 2.083470224300E+00 7.113018428449E-01 -4.817998754221E+00 4.933681024438E-01 8.913582662365E-01 -6.003363742728E-01 -7.351780065291E-04 -7.831552438248E-01 -8.595969932196E-01 9.280002612302E-01 -2.134474976274E-01 9.465951586025E-02 1.031254849562E+00 6.682189020427E-02 1.407444492829E+00 1.168846245285E+00 -3.968073476890E-01 -1.361148296256E+00 -3.836117669572E-01 -4.276114267943E-01 -9.521375536580E-01 -5.959427568757E-01 1.039437825968E-01 5.491397806319E-01 -3.409796749921E+00 -1.814528599925E+00 -1.327954966180E+00 -4.197289391498E+00 5.131594978393E-01 6.015568674923E+00
 -1.694692979151E+00 1.875301755306E+00 4.914483277663E-01 5.055568017117E-01 1.403464507243E-01 -3.898005696341E-01 2.302450539216E+00 -5.866692919078E-01 -2.255033027152E-01 1.299238738287E-01 -3.409819757883E-01 8.097638224074E-01 4.794190944801E-01 2.073818827065E+00 -2.354826865904E+00 -3.813907198993E-02 3.293095957396E-01 8.620236711097E-01 3.805994531460E-01 -2.222874549059E-01 -4.156212472830E-01 6.425441071742E-02 9.241654339154E-01 1.258818474696E-01 1.947499284078E+00 -1.502794752199E+00 1.306278935898E+00 -3.490199621809E+00 -2.040774019251E+00 7.182483610803E-01 1.302593684545E+00 -7.568180127107E-01 -2.880911725028E+00 -1.534863964084E+00 -1.611392538880E+00 1.300086432795E+00 -6.018599687472E-01 5.437967056279E-01 3.839874211083E-01 -1.374738045540E+00 -1.990433625365E-01 -3.991073256041E-01 -2.684662656468E+00 3.938502778399E-01 1.734802908703E+00 1.045282005226E+01
 -9.922989481436E-01 3.097460336213E+00 -2.530774045261E+00 6.545662419170E-01 -1.761041048696E-01 -5.756047888034E-01 1.043563473532E-01 -2.514959757275E+00 -3.633727649504E-02 2.689897008818E+00 2.741763613829E+00 8.589674157620E-01 -7.158647823408E-01 -1.523495846773E+00 1.747787484006E+00 9.655005813443E-01 1.353731923340E+00 -1.190149316942E-01 7.073990692573E-01 -1.410051576172E+00 3.668105107451E+00 -1.164762528899E-01 -5.546082827984E-01 -1.279553168175E+00 -2.386273732819E-01 -9.871536910235E-01 -1.305565332988E-02 -1.051728772291E+00 -3.455888899311E+00 3.801383672157E-01 -4.473126652687E-01 -1.384887235400E+00 -1.020703168760E+00 1.146536771179E+00 8.633588776384E-01 -2.650708890817E+00 1.061752133479E-01 -1.449948245320E+00 4.572057185708E-01 2.302924688739E-01 3.559696949968E-01 1.438960911859E+00 -1.211111726355E+00 7.408502978392E-01 1.771959502591E+00 2.436179775439E+00 1.803625000990E+01
 5.613487960292E-01 3.427277398446E-01 -5.826497283451E-01 4.384928593206E-01 3.110713037596E-01 -8.524654579345E-01 -1.168793274908E+00 -6.426673541608E-01 8.731910270363E-01 1.093935984507E+00 1.903631543057E+00 5.707750467255E-01 -9.071779743278E-01 -1.801361455151E+00 -7.365641552190E-01 4.813276024771E-01 1.018283069475E-01 -1.854241517883E+00 1.664428842030E+00 4.142771365378E-01 -3.046869151393E+00 -1.423034540003E+00 -1.485787715946E+00 -1.799734281667E-01 -2.942726236077E+00 1.989942560522E+00 -1.407488293624E+00 3.194974382581E+00 8.943297919737E-01 5.594641717720E-03 -2.159936851222E+00 -1.867209480330E+00 6.453489869553E-01 1.900244345738E+00 3.278276637595E+00 -2.668453066826E+00 3.584698949333E-01 -5.808250272058E-01 -2.737103097142E-01 1.389358564584E+00 -1.642706967728E-01 -1.784601256079E-01 -5.622988449939E-01 -9.745509656334E-01 6.986458765445E-01 -7.122246437187E+00 3.328375044287E-01 9.772625179533E+00
 -7.743888000671E-01 -2.092552549314E-01 2.227476154999E-01 -2.652902426892E-01 -1.905261887916E-01 -3.356707920726E-01 2.244885589956E-01 4.022187024129E-01 3.370316332715E-01 2.599611147012E-01 1.144091080561E+00 -2.828732980521E-01 -1.612744364484E+00 1.337693898110E+00 -1.322720799758E+00 -4.409047304456E-01 -1.864696009061E+00 9.136515883237E-01 1.038980137763E+00 -1.354201606311E+00 -1.268753505396E-01 -7.313068861829E-01 -8.291233109049E-01 1.750186227419E+00 9.586530382382E-01 1.372741210792E-01 -4.907140055658E-01 1.285165002626E+00 -6.204554434769E-01 1.419657044797E-01 -8.233791045260E-02 4.183495075338E-01 1.191183062947E+00 -1.961272019339E+00 -1.939568525120E+00 1.066106001347E+00 5.004368785283E-01 9.239801252406E-01 -2.340210070273E-01 1.194888096009E+00 5.230950915988E-02 -1.499155418805E+00 -7.405562461651E+00 -1.170076407864E+00 8.268127262069E-01 3.736800459963E-01 -6.122317294673E-01 5.050510024924E-01 8.026528280174E+00
 8.132849751502E-01 -2.851977472717E+00 1.075437500520E+00 1.262977414282E+00 -6.744399168239E-01 2.149640453571E+00 -2.175357686328E+00 1.776807975733E+00 -1.791864180669E+00 -9.700564467045E-01 -9.309720980340E-01 -7.478095855676E-01 -1.756882432418E+00 3.543988919916E-01 -3.814041831123E-01 1.869291582688E+00 -7.199169788210E-01 1.816253917231E+00 -1.071168199421E+00 -5.799451599572E-01 -5.004173355236E-01 2.178241440639E+00 -1.092028463857E+00 -9.773265025348E-01 6.969190490560E-01 7.958820556924E-01 -5.776610389967E-01 6.226808098814E-01 2.247889571796E+00 2.823317345881E-02 8.042869836114E-01 1.518031813575E+00 2.932336048736E+00 -2.912272114317E+00 -3.317093547360E+00 4.063376538618E+00 1.806305189585E-01 1.528531448941E+00 -1.875819577829E-01 -1.397624139016E+00 3.677918602942E-02 -1.346718793216E+00 -1.108113758262E+00 -1.804633243532E+00 -1.837781095097E+00 -1.608202068305E+00 -1.239708418633E+01 -3.217273988379E+00 3.867850823448E+00 1.600408331848E+01
 -5.876135917633E-01 2.880934796263E-01 2.579463067475E+00 -4.790481526604E-01 3.746139823127E-01 -8.796604121998E-01 1.582613453177E+00 2.545091727406E+00 9.679488797805E-01 -1.597216823255E+00 -2.477839278923E+00 -9.062035559824E-01 1.425541607666E-01 2.566923501006E+00 -1.961804598620E+00 2.682646295747E-01 -1.545945643117E+00 -7.158676307747E-01 3.528046648394E-01 4.883366638993E-01 -9.949312088230E-01 -1.171433152674E-01 4.262821060476E-01 2.796194059164E+00 1.405707480750E+00 3.692441309832E-01 -8.536256799130E-01 -7.299959918425E-01 5.593520268495E-02 -4.733915803858E-01 6.295685350491E-01 -2.162581180729E-01 -1.331475462146E+00 2.853161244637E-01 6.234994855935E-01 -1.632828917826E+00 -1.943155817567E-01 5.164146994570E-01 -2.592732665519E-01 4.163635366116E-01 6.169424032501E-01 -5.057905662047E-01 -5.324067099723E-01 -1.346809679365E+00 -3.187203338716E-01 5.874548565337E-01 -4.275505356871E+00 2.544503221705E-01 -5.351998545510E-01 4.412692160649E-01 3.623140418466E+00
 5.354630418526E-01 -2.472869051087E-01 -3.604861341118E-02 -8.153309697594E-01 -1.104257467463E-01 4.631474850719E-01 -1.270605599211E+00 -3.210078503706E-01 -1.624278031422E-01 1.283914228563E+00 -2.530540713274E+00 -8.656147301640E-01 7.787257717519E-04 -1.369416169737E+00 4.417645089592E-01 -4.605225044445E+00 4.718015228573E+00 1.023469982115E+00 -1.004065251089E+01 6.033770350835E+00 -1.227949536643E+00 -4.033691163924E-01 3.242129709043E-01 7.803577564002E-02 -3.258965593882E+00 1.744043024692E+00 -1.165978618486E-02 1.416232595885E+00 6.902480879326E-01 1.454663874731E-01 -8.066055834798E-01 1.413961671660E+00 -1.798424026543E-01 2.318150994143E+00 3.040695300051E-01 5.556881686261E-01 -6.398264546615E-02 -1.864587435316E+00 1.510080741906E-01 2.508960675811E-01 -5.151141317597E-01 -1.245861051082E+00 2.822691934898E+00 8.899482901247E-01 -4.624761487700E-01 -5.617514896983E+00 -1.610834490105E+00 2.899950628760E+00 -2.258479707911E+00 -9.126099027215E-01 -7.380337284326E-01 1.884278787525E+01
 8.486484121973E-01 -1.525608649128E-01 -2.110129618141E-01 7.300451922801E-01 -2.700930555909E-01 1.248250655930E-02 -2.210245988922E-01 -1.483585478404E+00 3.424091926835E-01 1.171798170033E+00 1.414758203920E+00 1.517985786532E+00 -2.128483469654E+00 1.137857704503E-01 -1.788255100560E+00 5.245246661709E+00 -2.610542689398E+00 -1.098345363741E+00 1.865415601382E+00 8.076474241620E-01 -6.467980846522E-01 1.606309618475E+00 -4.488704983975E-01 -1.886395948785E+00 3.509132002405E-01 -1.499122694811E+00 7.302373863566E-01 -5.953759425551E-01 2.764414739151E-01 6.749464201238E-01 -3.492688407767E+00 -2.103723314794E+00 -5.998016930993E-01 6.575449168449E-02 3.698836890414E+00 -5.232937898282E-02 -1.723698376730E-01 1.077307143460E+00 -8.459678175645E-01 5.216443254328E-03 3.426578082004E-01 -7.489187010000E-01 -9.604630853786E-01 -8.095619407328E+00 9.510562956497E-01 -7.664240454187E-01 -1.644126113283E+00 2.384270593974E+00 -1.195370322415E-01 -7.960841962246E-02 1.135427318510E+00 -4.388575736809E+00 1.101408424910E+01
 3.652464804958E-01 7.272417162413E-01 -1.683073341616E+00 3.478558106342E-01 8.298632210839E-01 -5.666050151085E-01 1.403231697895E-01 -1.743854067442E+00 -7.625816479756E-01 2.576256943345E+00 3.481314226105E-01 1.470316723891E+00 -2.859696908393E+00 -1.563728316357E+00 -6.255786867698E+00 4.826948271643E+00 -1.088976727850E+00 -1.816270931526E+00 -3.079052752306E+00 1.398459050139E+00 -2.014265044277E+00 2.159376813285E+00 -5.193908809352E-01 -4.705738191460E-01 -1.157681614526E+00 -5.285589367840E-01 -4.968391391163E-01 -2.575951944528E+00 -2.580123646862E+00 1.666802965161E+00 -2.690213909464E+00 1.727317552060E-02 -7.646308725010E-01 -1.094780021967E+00 -2.630868935496E-01 5.516538183245E-02 -4.195595323911E-01 4.210107474556E-01 7.809480517792E-01 1.239592899882E+00 8.313590561937E-01 -9.215266387071E-01 -1.574206714750E+00 1.096888045414E+00 8.969411210764E-01 5.996051308546E+00 2.182979425842E+00 -2.726661913286E+00 -2.204396732510E-01 4.756565021689E-01 1.095159629048E-02 -3.097950394380E+00 -7.683262229362E-01 1.334985017611E+01