 Job started on host yaesakura
 at Thu Jul 11 22:23:14 2019

 +-------------------------------------------------+
 |                                                 |
 |      CCC   AA    SSS  TTTTT  EEEEE  PPPP        |
 |     C     A  A  S       T    E      P   P       |
 |     C     AAAA   SS     T    EEE    PPPP        |
 |     C     A  A     S    T    E      P           |
 |      CCC  A  A  SSS     T    EEEEE  P           |
 |                                                 |
 +-------------------------------------------------+
 |                                                 |
 | Materials Studio CASTEP version 2017            |
 | Ab Initio Total Energy Program                  |
 |                                                 |
 | Authors:                                        |
 | M. Segall, M. Probert, C. Pickard, P. Hasnip,   |
 | S. Clark, K. Refson, J. R. Yates, M. Payne      |
 |                                                 |
 | Contributors:                                   |
 | P. Lindan, P. Haynes, J. White, V. Milman,      |
 | N. Govind, M. Gibson, P. Tulip, V. Cocula,      |
 | B. Montanari, D. Quigley, M. Glover,            |
 | L. Bernasconi, A. Perlov, M. Plummer,           |
 | E. McNellis, J. Meyer, J. Gale, D. Jochym       |
 | J. Aarons, B. Walker, R. Gillen, D. Jones       |
 | T. Green, I. J. Bush, C. J. Armstrong,          |
 | E. J. Higgins, E. L. Brown, M. S. McFly         |
 |                                                 |
 | Copyright (c) 2000 - 2016                       |
 |                                                 |
 | Please cite                                     |
 |                                                 |
 |     "First principles methods using CASTEP"     |
 |                                                 |
 |         Zeitschrift fuer Kristallographie       |
 |           220(5-6) pp. 567-570 (2005)           |
 |                                                 |
 | S. J. Clark, M. D. Segall, C. J. Pickard,       |
 | P. J. Hasnip, M. J. Probert, K. Refson,         |
 | M. C. Payne                                     |
 |                                                 |
 |       in all publications arising from          |
 |              your use of CASTEP                 |
 |                                                 |
 +-------------------------------------------------+
 
 
 This version was compiled for x86_64-windows-msvc2008 on May 05 2016
 Intel(R) Math Kernel Library Version 11.1.2 
 Fundamental constants values: CODATA 2010
 
License checkout of MS_castep successful
 
 
 Pseudo atomic calculation performed for Ga 3d10 4s2 4p1
 
 Converged in 29 iterations to a total energy of -2048.8842 eV
 
 
 Pseudo atomic calculation performed for As 4s2 4p3
 
 Converged in 16 iterations to a total energy of -167.4380 eV
 
 Calculation parallelised over 6 processes.
 Data is distributed by G-vector(2-way) and k-point(3-way)

 ************************************ Title ************************************
 CASTEP calculation from Materials Studio

 ***************************** General Parameters ******************************
  
 output verbosity                               : normal  (1)
 write checkpoint data to                       : GaAs__1_1_0_.check
 type of calculation                            : single point energy
 stress calculation                             : off
 density difference calculation                 : off
 electron localisation func (ELF) calculation   : off
 Hirshfeld analysis                             : off
 unlimited duration calculation
 timing information                             : on
 memory usage estimate                          : on
 write final potential to formatted file        : off
 write final density to formatted file          : off
 write BibTeX reference list                    : on
 write OTFG pseudopotential files               : on
 checkpoint writing                             : both castep_bin and check files
  
 output         length unit                     : A
 output           mass unit                     : amu
 output           time unit                     : ps
 output         charge unit                     : e
 output           spin unit                     : hbar/2
 output         energy unit                     : eV
 output          force unit                     : eV/A
 output       velocity unit                     : A/ps
 output       pressure unit                     : GPa
 output     inv_length unit                     : 1/A
 output      frequency unit                     : cm-1
 output force constant unit                     : eV/A**2
 output         volume unit                     : A**3
 output   IR intensity unit                     : (D/A)**2/amu
 output         dipole unit                     : D
 output         efield unit                     : eV/A/e
 output        entropy unit                     : J/mol/K
  
 wavefunctions paging                           : none
 random number generator seed                   : randomised (222315641)
 data distribution                              : optimal for this architecture
 optimization strategy                          : balance speed and memory

 *********************** Exchange-Correlation Parameters ***********************
  
 using functional                               : Perdew Burke Ernzerhof
 relativistic treatment                         : Koelling-Harmon
 DFT+D: Semi-empirical dispersion correction    : off

 ************************* Pseudopotential Parameters **************************
  
 pseudopotential representation                 : reciprocal space
 <beta|phi> representation                      : reciprocal space
 spin-orbit coupling                            : off

 **************************** Basis Set Parameters *****************************
  
 plane wave basis set cut-off                   :   280.0000   eV
 size of standard grid                          :     1.5000
 size of   fine   gmax                          :    12.8590   1/A
 largest prime factor in FFT                    :          5
 finite basis set correction                    : none

 **************************** Electronic Parameters ****************************
  
 number of  electrons                           :  90.00    
 net charge of system                           :  0.000    
 treating system as non-spin-polarized
 number of bands                                :         55

 ********************* Electronic Minimization Parameters **********************
  
 Method: Treating system as metallic with density mixing treatment of electrons,
         and number of  SD  steps               :          1
         and number of  CG  steps               :          4
  
 total energy / atom convergence tol.           : 0.2000E-05   eV
 eigen-energy convergence tolerance             : 0.3636E-06   eV
 max force / atom convergence tol.              : ignored
 convergence tolerance window                   :          3   cycles
 max. number of SCF cycles                      :        100
 number of fixed-spin iterations                :         10
 smearing scheme                                : Gaussian
 smearing width                                 : 0.1000       eV
 Fermi energy convergence tolerance             : 0.2721E-13   eV
 periodic dipole correction                     : NONE

 ************************** Density Mixing Parameters **************************
  
 density-mixing scheme                          : Pulay
 max. length of mixing history                  :         20
 charge density mixing amplitude                : 0.5000    
 cut-off energy for mixing                      :  280.0       eV
 charge density mixing g-vector                 :  1.500       1/A

 *******************************************************************************
  
 
                           -------------------------------
                                      Unit Cell
                           -------------------------------
        Real Lattice(A)                      Reciprocal Lattice(1/A)
   5.6531500   0.0000000   0.0000000        1.1114485   0.0000000   0.0000000
   0.0000000   3.9973807   0.0000000        0.0000000   1.5718256   0.0000000
   0.0000000   0.0000000  17.9947614        0.0000000   0.0000000   0.3491675
 
                       Lattice parameters(A)       Cell Angles
                    a =    5.653150          alpha =   90.000000
                    b =    3.997381          beta  =   90.000000
                    c =   17.994761          gamma =   90.000000
 
                       Current cell volume =  406.641888       A**3
 
                           -------------------------------
                                     Cell Contents
                           -------------------------------
                         Total number of ions in cell =   10
                      Total number of species in cell =    2
                        Max number of any one species =    5
 
            xxxxxxxxxxxxxxxxxxxxxxxxxxxxxxxxxxxxxxxxxxxxxxxxxxxxxxxxxxxx
            x  Element    Atom        Fractional coordinates of atoms  x
            x            Number           u          v          w      x
            x----------------------------------------------------------x
            x  Ga           1         0.000000   0.000000  -0.000000   x 
            x  Ga           2         0.000000   1.000000   0.222141   x 
            x  Ga           3         0.000000   0.000000   0.444283   x 
            x  Ga           4         0.500000   0.500000   0.333212   x 
            x  Ga           5         0.500000   0.500000   0.111071   x 
            x  As           1         0.250000   0.000000   0.111071   x 
            x  As           2         0.250000   1.000000   0.333212   x 
            x  As           3         0.750000   0.500000   0.222141   x 
            x  As           4         0.750000   0.500000  -0.000000   x 
            x  As           5         0.750000   0.500000   0.444283   x 
            xxxxxxxxxxxxxxxxxxxxxxxxxxxxxxxxxxxxxxxxxxxxxxxxxxxxxxxxxxxx
 
 
                         No user defined ionic velocities
 
                           -------------------------------
                                   Details of Species
                           -------------------------------
 
                               Mass of species in AMU
                                    Ga   69.7350006
                                    As   74.9219971
 
                          Electric Quadrupole Moment (Barn)
                                    Ga    0.1070000 Isotope 71
                                    As    0.3140000 Isotope 75
 
                          Files used for pseudopotentials:
                                    Ga Ga_00PBE.usp
                                    As As_00PBE.usp
 
                           -------------------------------
                              k-Points For BZ Sampling
                           -------------------------------
                       MP grid size for SCF calculation is  2  3  1
                            with an offset of   0.000  0.000  0.000
                       Number of kpoints used =             3
 
                           -------------------------------
                               Symmetry and Constraints
                           -------------------------------
 
                      Maximum deviation from symmetry =  0.00000         ANG
 
         There are no symmetry operations specified or generated for this cell
         There are no ionic constraints specified or generated for this cell
                      Point group of crystal =     1: C1, 1, 1
                      Space group of crystal =    25: P2mm, P -2 2
 
 
                         Centre of mass is NOT constrained
 
                         Number of cell constraints= 0
                         Cell constraints are:  1 2 3 4 5 6
 
                         External pressure/stress (GPa)
                          0.00000   0.00000   0.00000
                                    0.00000   0.00000
                                              0.00000
  
+---------------- MEMORY AND SCRATCH DISK ESTIMATES PER PROCESS --------------+
|                                                     Memory          Disk    |
| Baseline code, static data and system overhead        0.0 MB         0.0 MB |
| BLAS internal memory storage                          0.0 MB         0.0 MB |
| Model and support data                               36.3 MB        25.6 MB |
| Electronic energy minimisation requirements           8.6 MB         0.0 MB |
| Force calculation requirements                        1.9 MB         0.0 MB |
|                                               ----------------------------- |
| Approx. total storage required per process           44.8 MB        25.6 MB |
|                                                                             |
| Requirements will fluctuate during execution and may exceed these estimates |
+-----------------------------------------------------------------------------+
------------------------------------------------------------------------ <-- SCF
SCF loop      Energy           Fermi           Energy gain       Timer   <-- SCF
                               energy          per atom          (sec)   <-- SCF
------------------------------------------------------------------------ <-- SCF
Initial  -9.43380337E+003  0.00000000E+000                         1.06  <-- SCF
      1  -1.08266809E+004  9.05686430E-002   1.39287749E+002       2.27  <-- SCF
      2  -1.11167563E+004 -2.06249224E+000   2.90075444E+001       3.11  <-- SCF
      3  -1.11261690E+004 -1.89613470E+000   9.41270686E-001       4.09  <-- SCF
      4  -1.11251115E+004 -1.81924911E+000  -1.05747650E-001       5.36  <-- SCF
      5  -1.11249015E+004 -1.69776208E+000  -2.10075224E-002       6.80  <-- SCF
      6  -1.11248929E+004 -1.65156360E+000  -8.54808630E-004       8.08  <-- SCF
      7  -1.11248860E+004 -1.60032173E+000  -6.87033984E-004       9.25  <-- SCF
      8  -1.11248764E+004 -1.53643833E+000  -9.63009864E-004      10.66  <-- SCF
      9  -1.11248689E+004 -1.48604427E+000  -7.48746455E-004      12.03  <-- SCF
     10  -1.11248659E+004 -1.43204337E+000  -3.03377765E-004      13.12  <-- SCF
     11  -1.11248662E+004 -1.39769311E+000   3.52770663E-005      14.20  <-- SCF
     12  -1.11248701E+004 -1.36827541E+000   3.90761715E-004      15.20  <-- SCF
     13  -1.11248733E+004 -1.36344060E+000   3.18782499E-004      16.36  <-- SCF
     14  -1.11248739E+004 -1.35964677E+000   5.91170516E-005      17.55  <-- SCF
     15  -1.11248741E+004 -1.35864149E+000   1.57082947E-005      18.53  <-- SCF
     16  -1.11248741E+004 -1.35900510E+000   3.17542632E-006      19.61  <-- SCF
     17  -1.11248741E+004 -1.35900889E+000   1.32060102E-006      20.45  <-- SCF
     18  -1.11248741E+004 -1.35896318E+000   1.58626838E-007      21.34  <-- SCF
------------------------------------------------------------------------ <-- SCF
 
Final energy, E             =  -11124.86937400     eV
Final free energy (E-TS)    =  -11124.87412608     eV
(energies not corrected for finite basis set)
 
NB est. 0K energy (E-0.5TS)      =  -11124.87175004     eV
 

Writing analysis data to GaAs__1_1_0_.castep_bin

Writing model to GaAs__1_1_0_.check
 
 *********************** Forces ***********************
 *                                                    *
 *            Cartesian components (eV/A)             *
 * -------------------------------------------------- *
 *                   x            y            z      *
 *                                                    *
 * Ga        1     -1.16237      0.00000      0.60638 *
 * Ga        2     -0.56728      0.00001      0.43551 *
 * Ga        3     -1.18090     -0.00002     -0.84586 *
 * Ga        4      0.41157     -0.00001     -0.54278 *
 * Ga        5      0.40739     -0.00000      0.48384 *
 * As        1      0.72574      0.00000     -0.84057 *
 * As        2      0.71514      0.00001      0.37184 *
 * As        3      0.11983      0.00001      0.72313 *
 * As        4      0.27830      0.00000     -1.66576 *
 * As        5      0.25258      0.00000      1.27428 *
 *                                                    *
 ******************************************************

Writing analysis data to GaAs__1_1_0_.castep_bin

Writing model to GaAs__1_1_0_.check
 
 A BibTeX formatted list of references used in this run has been written to 
 GaAs__1_1_0_.bib
 
Initialisation time =      0.39 s
Calculation time    =     21.72 s
Finalisation time   =      0.11 s
Total time          =     22.22 s
  
Overall parallel efficiency rating: Good (75%)                                  
  
Data was distributed by:-
G-vector (2-way); efficiency rating: Good (79%)                                 
k-point (3-way); efficiency rating: Excellent (94%)                             
  
Parallel notes:
1) Calculation only took 22.2 s, so efficiency estimates may be inaccurate.     
