#BIOSYM hessian 1
@Type: Hessian Update
@Units
 distance: 	A
 energy: 	Kcal/Mol
#header
@natom 7

#label
L1      L2      L3      L4      L5      L6      L7

#element
Li Li Li Li Li Li Li

#matrix
21
 2.781197725969E+01
 -1.867807527910E+00 3.016161100473E+01
 -7.672485163430E+00 3.131259108608E-01 2.595880827173E+01
 -1.497997123441E+01 -3.791234574825E+00 4.732485993476E+00 3.480399562195E+01
 1.106932971779E+00 -4.743069825794E+00 2.411953323469E+00 -2.613320937781E+00 3.096061377641E+01
 8.283166911943E+00 1.779190300514E+00 -1.548525684937E+00 -2.040397524809E+00 -4.085717916817E+00 1.517617396240E+01
 -5.817814218454E+00 7.564466038908E+00 -1.677969032746E-01 1.200410439030E+00 -1.903717274263E+00 4.275431077852E+00 1.067313565835E+02
 8.177133279352E+00 -5.165042228994E+00 2.373305024473E-01 -1.632887357130E+00 -1.359313563626E+01 7.418511931063E+00 7.121115701927E+00 2.882401920681E+01
 1.162831333829E+00 -4.309910383577E+00 2.447542243655E+00 1.951089702625E+00 6.407801551841E+00 -4.590650898034E-01 -3.142579485177E+01 -1.402704118532E+01 3.982084597947E+01
 -2.276589655036E-01 -1.861274168917E+00 1.084455408778E+00 -1.000507940601E+01 9.920446610366E+00 -6.136308608422E+00 -2.587743506685E+00 -1.711905563023E+00 5.702095965383E-01 1.230149622632E+01
 1.021380548381E+00 -4.474260874124E+00 6.858358875397E+00 1.796826279727E+00 -2.154964848375E+00 1.479588501189E+00 6.392805061347E-01 -2.044975305575E+00 2.167694968209E+00 -7.616998644181E+00 2.566045868789E+01
 -2.170921967823E+00 8.675679041968E+00 -1.041676415784E+01 -4.133617266642E+00 8.983155372329E-01 -4.212870686279E+00 -1.912006878306E+00 2.474610027058E-02 -2.884703243600E+00 4.498427948067E+00 -1.032802578863E+01 1.465085371110E+01
 -2.870388731483E+00 3.735314216273E+00 4.137070909475E+00 -7.306627818625E+00 -6.270764893681E+00 -4.149043476239E+00 -7.806361374371E+00 4.201589178067E+00 -7.991343988998E+00 -1.211551015591E-01 7.049964701898E+00 5.532042824951E-01 3.730407017177E+01
 2.340738998571E+00 -2.320051943531E+00 -6.640154944938E+00 -5.021348301808E+00 -3.045646934524E+00 -8.082457849755E-01 8.847499444637E+00 -3.388094803096E+00 3.526726307587E+00 2.274357635779E+00 -1.596975181659E+01 -5.285806665172E-01 -8.254554883858E+00 3.329393585906E+01
 1.973796791615E+00 -5.406139257005E+00 -1.209437081468E+01 -3.310389690244E+00 -2.612284306466E+00 -3.266097892340E+00 -1.231836485748E+01 6.963859129227E+00 -1.213093701960E+01 -2.894683824502E-01 2.435939490686E+00 9.769551875926E-01 4.002842378466E+00 -5.836459987557E+00 3.746946052873E+01
 -4.575148664395E+00 -3.097586842747E+00 -1.374549029517E+00 -9.816748947310E-01 -1.868133520932E+00 -1.998705903553E+00 -6.239299147188E+01 -1.505011313232E+01 2.203814453866E+01 1.307010198782E+00 -1.659658005522E+00 2.876543399289E+00 -6.901143168988E+00 -5.164436613286E+00 1.236318910614E+00 5.852992513685E+01
 -8.219289611954E+00 -1.225507230790E+01 -2.835391852216E+00 2.656560060617E+00 -7.893119438151E-01 -4.716860554772E-01 -1.451921617792E+01 -3.662413143921E+00 4.610186496175E+00 -6.236185645373E-02 -1.198310043929E+00 1.094451707475E+00 -5.969339865080E+00 -5.030759130949E+00 4.384982110591E+00 2.260694586320E+01 2.174888967363E+01
 -2.533458188859E+00 -2.750513808646E+00 -1.215969357990E+00 1.274254775710E-01 -3.862903950239E-01 -1.621426357231E+00 -8.902003019734E+00 -3.014556632994E+00 1.710265939514E+00 3.522241894650E-01 -7.156131289919E-01 2.116670944823E-01 7.184667294054E+00 6.243894924046E+00 -4.535786653881E+00 2.531814232223E+00 -7.906848258205E-01 8.557986593327E+00
 6.590045545645E-01 -6.818771407827E-01 -7.391812155079E-01 -2.731052707203E+00 1.628557044512E+00 1.765857523228E+00 -2.932685645117E+01 -1.104932106874E+00 1.369486366912E+01 -6.668694453400E-01 -1.230795386439E+00 2.883704829197E-01 -1.229839397674E+01 4.977743719965E+00 8.705264849482E+00 1.501402286436E+01 3.506701587585E+00 1.239330015280E+00 2.935014516153E+01
 -2.559088658218E+00 -1.204113824394E+00 -3.452218150199E-01 8.605404831200E+00 -6.634484587640E+00 -5.311640975497E+00 -7.749428239429E+00 -9.703580889645E-01 1.624542245082E+00 -9.422640135710E-01 1.818042007070E-01 1.634140682021E-01 5.507791546379E+00 -3.539631230369E+00 7.010282052261E-02 4.232982251606E+00 1.186976896881E+00 1.413763867430E+00 -7.095397717967E+00 1.097980663378E+01
 9.570702827251E-01 1.698568195884E+00 -3.130720499940E+00 2.673403308021E+00 -2.633777794236E+00 -4.068188251813E+00 5.045053543272E+01 2.397150155303E+00 -2.850394880963E+01 -7.954015197661E-02 -1.897942917858E+00 1.674862094540E+00 -3.737397399253E+00 4.042820152354E+00 -6.419223335821E+00 -2.530956614772E+01 -5.991857580728E+00 -3.106737258222E+00 -2.495450532452E+01 2.385039789281E+00 4.355395606089E+01

