#BIOSYM hessian 1
@Type: Hessian Update
@Units
 distance: 	A
 energy: 	Kcal/Mol
#header
@natom 19

#label
L1      L2      L3      L4      L5      L6      L7      L8      L9      L10     L11     L12     L13     L14     L15     L16     L17     L18     L19

#element
Li Li Li Li Li Li Li Li Li Li Li Li Li Li Li Li Li Li Li

#matrix
57
 4.810987986532E+01
 -6.888458399713E-01 2.255447629137E+01
 5.941381571291E+00 4.724879449234E-01 3.424953186516E+01
 -1.818880630741E+00 -1.259356142116E+00 -1.672210284666E+00 2.463589424785E+01
 -9.610499960698E-02 -5.486223482641E-01 -2.339315596256E-01 6.905993185527E+00 1.451244537156E+01
 -3.716235205351E-02 9.252861839905E-01 -6.229594374179E-01 -2.844391019291E+00 -9.916975082390E-01 8.751729973212E+00
 1.199597609009E+00 2.134786643661E-01 -1.118558699555E+00 -2.200783754400E+00 -1.633396840085E+00 2.979797859768E+00 2.597996052687E+01
 -1.161833261853E-01 6.529038865417E-01 1.073292970673E+00 -1.132534367534E+00 -3.375132147081E+00 3.081310687378E+00 1.272793960504E+00 2.210811214749E+01
 9.387023963964E-01 -1.052830191528E+00 1.716738065434E-01 2.498304862390E+00 2.886168300383E+00 -3.846743522493E+00 1.091807721058E+00 -3.981784855040E+00 2.736200371774E+01
 -2.299409660235E+00 6.041973953293E-01 -2.751285957777E-02 2.239692101459E+00 1.512995101890E-01 -6.319722366218E-01 -2.678625220220E+00 -2.965894816446E+00 -3.759344863449E-01 2.510575860723E+01
 1.105885478920E+00 -2.884980427429E-01 1.872475543288E-01 -1.070257824770E+00 -5.373922006455E-01 2.061083017353E-01 -1.757383585688E+00 -6.227083748044E+00 -1.785856857731E+00 -6.635584103094E+00 2.630594479367E+01
 1.013974109610E+00 6.715403138935E-01 6.171637990963E-01 -3.455374568183E-01 -8.636815722699E-01 5.532594305115E-01 -6.422755069658E-02 1.815843910923E-01 -2.044074120457E+00 1.994505265421E+00 5.863516656693E-01 1.988227657753E+01
 4.944445130897E-01 1.141681929531E+00 -5.773867798924E-02 -1.415457155056E-01 2.955802555019E-03 5.253784285853E-01 -8.399833048163E-01 -1.934823426218E-01 5.006675817298E-01 -9.101007499364E+00 -9.187661715774E-02 2.150662565808E+00 2.249410141076E+01
 -1.085056365287E-01 1.855077105596E-01 1.847782835622E-01 -7.208942930438E-01 -1.354979949228E+00 9.183464198438E-01 -3.627604149553E-01 -3.692806006725E-02 -3.020259901629E-01 1.396201133011E+00 2.221364630525E-01 -4.996748825232E-01 4.778112359531E+00 2.276658420130E+01
 9.023735815994E-01 -1.589078345826E+00 -3.926450340705E-01 3.289381716143E-02 -4.359472562505E-01 -5.533443622679E-01 2.600490339608E-01 -5.447183599811E-01 4.067945370771E-01 6.154572970663E-01 4.058136668296E-01 -2.028723790089E+00 -1.946149948769E+00 1.642151119620E+00 1.915701879490E+01
 -3.880932317415E+00 -4.004089153184E+00 -2.142600364118E+00 6.901918205786E-01 -5.746502943483E-01 2.115690821734E-01 -1.149038824795E+00 1.359093790288E-01 5.069098913837E-01 1.216312636530E+00 1.975765386664E-01 -3.883532653997E-01 -3.080606403273E+00 1.790806000988E+00 -1.241360584729E+00 2.744847229902E+01
 -3.444869471061E+00 -8.548150703897E+00 -3.440528260713E+00 5.888128291719E-01 4.222323616739E-01 -1.011237608434E+00 1.546650076866E+00 -2.193824926037E+00 3.733150734407E-01 8.580845705009E-01 2.033713261167E+00 -7.295262436612E-01 2.766710761980E+00 -5.418955847293E+00 4.228645058651E+00 -3.475535302173E+00 3.279552029836E+01
 -2.193693346918E+00 -3.900283376739E+00 -1.751455786097E+00 1.389786892671E+00 3.492354302295E-01 -5.115469689341E-01 -1.337811528836E+00 -1.261934842347E+00 1.619724991722E-01 -2.457892947118E-01 8.361687924422E-02 -7.633273875843E-01 -1.405598258615E+00 3.642456268368E+00 -3.102687347908E+00 -2.547834715708E+00 5.841819670792E+00 3.805350316715E+01
 -4.252176361583E+00 -1.491740061588E-01 -4.680767818386E+00 2.071851585784E+00 -6.327052076153E-02 -8.817864356183E-01 -3.820324576305E+00 3.700748602037E+00 2.242673031012E+00 7.362070816871E-01 -9.411812535355E-01 -9.188794766043E-02 5.458801121700E-01 9.096493458976E-02 -9.626256205556E-02 8.556358200035E-01 -6.023166636659E-01 1.567352723702E-01 1.409099110619E+01
 1.932649951478E+00 5.346116823568E-01 2.055581008868E+00 1.242364024341E-02 3.668250745536E-01 -4.694603059154E-01 2.908749871156E+00 -2.044697149998E+00 -8.067022643233E-01 -6.741420368387E-01 -1.373063061895E+00 4.675770003849E-01 -1.180956595240E-01 -1.405224937936E+00 -5.321360515274E-01 -3.555745975291E-01 -7.694475765897E-01 -2.429454093473E-01 5.860161721769E-01 2.080000236482E+01
 -5.637393162581E+00 -4.773956304450E-01 -8.487924025184E+00 -1.542336494683E+00 5.438287123799E-02 1.295443858972E+00 8.417351710765E-01 -1.047625572061E+00 3.799506496254E-01 -6.774678481807E-01 9.724304179467E-01 -9.529539755771E-02 7.236023040343E-01 7.623633202748E-01 3.506017846694E-01 7.892274686177E-01 1.502672678677E+00 -1.326816699321E+00 2.117052371324E+00 3.408211267594E+00 2.536686279578E+01
 -2.051487572884E+00 -3.835028853995E+00 2.747698441458E+00 -1.509973619233E+00 -6.329187422910E-01 7.130867625623E-01 -1.946952139012E-01 6.220906252113E-01 -4.710597476777E-01 -6.900399006956E-01 1.324307911412E+00 3.145026082274E-01 -8.494914283340E-01 1.496511441352E+00 -1.850865760306E-01 -1.013293755689E+00 1.766667240797E-01 4.023431621446E-01 -5.276805854788E+00 -3.457391653420E+00 4.478802148791E-01 2.238725675467E+01
 -3.341964843431E+00 -3.473290856555E+00 3.572883345745E+00 1.138495546465E+00 -3.069877589381E-02 -4.057738176377E-02 -9.365024972028E-01 1.844802171508E-01 -3.982067850566E-01 4.472757755013E-01 -9.639190532154E-01 -3.671940317238E-01 1.254558462192E+00 -5.915280197200E+00 -2.040599405983E+00 -9.070546457328E-01 7.375690238015E-01 -3.432188916525E+00 -3.788722170888E+00 -2.949378155617E+00 -1.842714156620E-01 -1.546056618333E+00 1.863876996907E+01
 3.406666934317E+00 5.064548280229E+00 -5.874858665985E+00 -1.476759252589E+00 5.435674820060E-01 8.470596740725E-01 1.187047636248E+00 3.088738863746E-01 3.555728875436E-01 -8.210073263277E-01 -1.443241274382E+00 -1.965310656946E-01 5.938442456395E-01 -1.531114529684E+00 -8.702413106335E-01 -2.450995346184E+00 -2.716938639342E+00 -1.281373789398E+01 -2.171427355682E+00 -9.646404976299E-01 3.936308114658E-01 -3.025229851259E+00 2.897331993414E-01 2.925274871520E+01
 4.055811014137E-01 2.318160460127E-01 9.271711751668E-01 -3.355967162388E-01 7.966150750876E-02 5.886303154016E-02 -2.992881546956E+00 -2.244937100849E+00 3.059705264578E+00 -1.326340494703E+00 5.945173267822E-01 3.684836260472E+00 -3.833409490011E+00 -1.776266292304E+00 -4.409714638275E+00 -1.645028463341E-01 -1.492982373557E+00 -7.329633463758E-01 -1.453867852737E+00 8.248601077087E-01 2.261424835554E-01 -3.936332960638E+00 3.322311038225E+00 -2.118431526075E+00 1.596282005561E+01
 -5.715662077614E-01 -5.249016183178E-01 1.539889000900E-01 -6.290080793689E-01 -4.611764130210E-01 -1.970785743740E-01 -1.154759628097E+00 -2.460601600096E+00 1.900874909870E+00 1.775454265086E+00 -1.712765165847E+00 -4.638891848380E+00 -1.769483015045E+00 -2.031756846472E+00 -3.351645554617E+00 -3.417202834484E-01 -1.114770934441E-01 1.379032350247E-01 6.134961844153E-01 -7.735001408665E+00 1.012290101574E+00 1.796094423096E+00 -1.623452462424E+00 1.769471020608E+00 -1.422994495265E+00 1.756753208712E+01
 5.787558848480E-01 -5.611478604838E-01 1.538584950820E+00 5.247758261020E-01 4.966370396165E-01 -1.680897895395E-01 1.823238746809E+00 1.797762934919E+00 -3.091744470878E+00 2.659607537089E+00 -2.640909111129E+00 -4.909328549288E+00 -4.074725400529E+00 -2.173882514707E+00 -6.494308319752E+00 7.664488154990E-01 7.711773381396E-02 -2.865673099551E-01 -6.438523985112E-02 1.097950545453E+00 -8.091651166234E-01 -7.275385238055E-01 8.420736265489E-01 2.986169595633E-01 8.537176722987E-01 -1.649118487395E+00 3.498324424840E+01
 1.417329510814E+00 4.250878628372E+00 -2.124640926683E+00 -8.419964233916E-01 -3.587486773558E-01 1.248279923262E+00 -1.047923600635E+01 -2.362454034004E+00 -2.732732170105E+00 -3.791752630443E+00 7.389520141337E+00 -1.217342627180E+00 -4.534006277399E+00 -8.141228000913E+00 3.685897891329E-01 -3.570755259359E+00 -1.833782382103E+00 -1.995172132162E+00 -3.778799227416E-01 -5.169192736400E-01 -8.381697819366E-01 -7.002113959099E+00 2.769961800401E+00 7.542686277442E+00 -7.191490795457E-02 1.195532314254E+00 -4.555287551097E-01 3.805845655072E+01
 1.905604977830E+00 -6.190522448615E+00 1.033163763183E+00 1.891978991041E+00 7.985741032152E-01 -8.458525750758E-01 -3.706496992768E+00 -1.712087526661E+00 -5.702298192300E-01 7.961256334184E+00 -1.386872218038E+01 9.679352472722E-01 -6.589571423844E+00 -8.639192785868E+00 1.803626757999E+00 5.907583049899E-01 2.301080764729E-01 1.299955715847E+00 5.745985384152E-02 -5.925608344594E+00 -5.548379539035E+00 1.281705713690E+00 -3.300808528925E-02 -3.712316144455E+00 1.673647985531E+00 1.991970887644E-01 2.631309943472E+00 -6.595877293141E-01 4.387265750758E+01
 -4.623971655134E+00 1.522938525284E+00 -2.348737182720E+00 2.566993026023E-02 -1.215539346945E+00 -2.347825206992E-01 -2.324478627998E+00 -6.434615381677E-01 -9.144342236937E-01 5.205806821230E-01 -7.902023702312E-01 6.731290190621E-01 1.065989392486E+00 -5.844419428162E-01 6.674447582236E-01 -2.449415891587E+00 1.254908748440E+00 -1.443505524858E+00 2.022138816942E-01 -3.983438392388E+00 -5.196178242201E+00 5.030589772472E+00 1.554564963281E-02 -5.174358677241E+00 -1.183734014524E+00 3.262294295040E+00 -2.016049097909E+01 -1.587474190731E+00 -9.903232766204E-01 5.384268080640E+01
 -1.633174771733E+01 4.836124972681E-01 4.567592103305E+00 -1.368376083393E+01 2.395389306213E+00 4.511900693039E+00 -3.012438363914E+00 3.366345714984E+00 -2.864237193163E+00 -6.976851586120E-01 1.157558865610E+00 2.129527455903E-01 -4.112242105694E-01 -4.808233085280E-02 -9.929475279667E-01 2.095695742001E+00 -5.551440080910E-01 -1.694431552829E+00 -1.684402363941E+00 2.561043904058E-01 3.819226535801E+00 1.642603095722E+00 -8.859339278610E-01 -3.148005202306E-02 -1.315774035097E-01 -5.249038126260E-01 3.304087009684E-01 -3.249073505350E+00 -3.573077520363E+00 1.582040441857E+00 3.953749682699E+01
 6.275364073853E-01 -5.966958015965E-01 -1.823534616493E+00 1.286366497363E+00 4.724874129755E-01 -2.791551095698E-01 3.296644292399E+00 -6.105541597320E+00 4.896253023967E+00 -9.017271146787E-01 1.472398154908E+00 -5.473779798978E-01 -1.990884889984E-01 -1.228694186582E+00 3.533074584620E-01 2.119147326228E-01 1.927265994618E+00 1.135383990498E+00 -1.009922301802E+00 2.466030335213E-02 -6.461454738512E-01 -3.989918302734E-02 9.849423616938E-01 5.859832237347E-01 2.163940880695E-01 -6.387381567457E-01 -7.800117257745E-01 -2.610612991820E+00 -5.754542085831E+00 2.700202628670E+00 -1.129457678291E+00 2.014272449279E+01
 -5.449026492077E-01 -7.006533705560E-01 -4.901166018239E-01 2.334311948845E+00 -8.556865978346E-01 -7.736787153101E-01 -5.384159307854E+00 5.603792964221E+00 -6.895979921793E+00 1.832458582606E+00 -3.534688878222E-01 -5.830970484533E-01 -2.998143164105E-01 -5.492201042609E-01 -8.584259775038E-01 -8.751808112310E-01 -1.359208407321E-01 1.301988742828E+00 3.593542739214E+00 -2.207584140044E-01 -9.323151234352E+00 -8.170801926311E-01 1.249029632670E+00 6.916191419234E-01 1.011858477233E+00 1.239670251527E+00 2.785963530615E+00 1.324155603815E+00 3.104349051433E+00 -1.458733131884E+00 -8.343823744702E+00 -9.330926597892E-02 3.863089181597E+01
 4.879007864919E-01 -1.861783857966E+00 -2.274654475766E-03 2.954825383218E-01 5.960148228585E-01 -4.258275061414E-01 -4.883464180616E-01 -1.638001922755E+00 5.007173955630E-01 -6.206659324816E+00 1.383743236414E+00 -7.544068380473E+00 -1.433817109247E+00 4.334246275367E-01 6.307429132741E+00 -1.947636558650E+00 1.678544700696E+00 1.840371957154E+00 -8.055792264526E-01 -5.876054026456E-01 -1.931086262510E-01 1.324509719128E+00 1.410631423170E+00 2.626711903124E-01 -5.622078508192E-01 -4.752748044363E-01 -5.159651050297E-01 -1.621381914345E+00 1.757263893076E-01 -1.066960097455E+00 -8.462559502841E-01 5.108869035050E-01 -3.577859311537E-04 2.159537583251E+01
 -2.937169347529E-01 1.009011695864E+00 -3.640385137033E-01 -4.170205589393E-01 -5.523606676314E-01 -4.640787963410E-02 5.690712646654E-01 9.772677433749E-02 8.010143448863E-01 1.300562026502E+00 -3.826336676313E-01 1.643285568339E+00 -9.095717524636E-01 6.700403015766E-01 7.871296258549E-01 1.550311549453E+00 -2.418482974699E+00 -8.015424880018E-01 -8.821461959379E-01 4.376401960137E-02 2.119160424591E+00 9.055640077402E-02 -3.107867477037E-01 1.301146722552E+00 1.597434514212E-01 -6.550565978509E-01 1.578942129106E-01 -6.535328183073E-01 -3.674015755833E+00 -3.662426026688E+00 4.540514581348E-01 -1.071365625884E+00 -1.260348705999E+00 -2.555359723884E-01 3.060965293547E+01
 3.996704690692E-01 3.940340431274E-01 1.062943735047E+00 -4.399865987269E-01 8.757887865658E-01 -7.067690312867E-01 -2.146095293378E+00 -7.694207468282E-01 1.012062521171E+00 -5.183948339746E+00 2.260406776493E+00 -9.976494491172E+00 3.373245571410E+00 8.712183542302E-01 -9.058372373714E+00 -2.999161883442E-01 -1.315931054940E+00 -1.651034670146E-01 5.554221692364E-01 -9.025346598994E-01 -2.974401106678E-01 4.509828706823E-02 -8.985846782092E-01 -7.652706841056E-01 1.888819108976E-01 -3.157783390168E-01 5.078348848417E-01 2.257210023928E-01 -1.656543566931E+00 -6.027117828895E+00 1.690119282932E+00 1.305103520183E-01 -2.124690571251E-01 2.657655905923E+00 -5.837893818973E+00 3.793892038387E+01
 3.467863993583E-01 -4.209288982564E-01 1.339523091179E+00 -6.218839808925E+00 -8.738336758142E+00 -1.716526643511E+00 -1.004132526239E+00 1.183764246697E+00 -2.607042997964E+00 -8.881331722947E-01 -1.659942258346E+00 1.914784233941E+00 1.321750283591E-02 3.945319221414E-01 -6.693092172896E-03 -3.912501618242E-01 -5.344159271998E-01 -3.030453838531E-01 -4.080494117617E-01 6.257083671476E-01 -6.870330554448E-01 -1.153207047274E+00 3.491058620574E-01 -9.631202876443E-01 5.844143306138E-01 3.956152227947E-01 -1.236514779169E+00 -2.449962342098E+00 -4.474446249124E-01 3.382748900940E+00 -4.134496032692E-01 2.135942211659E+00 1.368406331590E+00 -5.319570202866E+00 -1.858535753244E+00 -5.788858862420E-01 3.117080742648E+01
 1.856384144847E+00 3.841818538062E-01 4.216793313957E-01 -8.012069223413E+00 -1.063184446696E+01 -1.251531685307E+00 2.139753038510E+00 1.203036243420E+00 -1.993647913381E+00 -3.610959075916E+00 -2.752383222450E+00 2.021407023168E+00 -1.404915319180E+00 1.645553694673E+00 3.250118549540E-01 8.491395333613E-01 -9.682340244146E-01 -6.414470360211E-01 -3.036748863594E-01 -3.823398639307E-01 5.931003428322E-01 1.403156729752E+00 -1.858189982777E+00 -1.403686922836E-01 -6.887592836168E-01 5.445942372821E-01 -4.751985461402E-01 -2.633278997326E-01 -1.058587079593E+00 1.393143062083E+00 9.431696244030E-01 -6.544957915700E+00 -4.494023640098E+00 -1.438456296098E+00 -1.269822881736E+00 -4.659670018197E-01 5.694272990326E+00 2.864855796034E+01
 -3.114639654347E-01 2.345991857749E-01 -8.684804194571E-01 1.721081382619E-01 -1.382890649495E+00 -1.385300519193E+00 -8.316977682203E-01 -3.290350026250E+00 -9.923484676542E+00 1.111049094630E+00 2.185186260653E+00 -3.706546968523E+00 6.101746852460E-02 3.837553205557E-01 7.003727661234E-01 -1.370246297197E-01 -2.761835918794E-01 -2.735878020046E-01 1.410481164000E+00 -5.596374489158E-02 3.021835776772E-02 3.356285974979E-01 -3.674880762394E-01 -1.537991051426E+00 1.554010517067E-01 6.402712921029E-01 -9.618915331529E-01 2.137477386510E+00 2.801059844598E-01 -2.864674230055E+00 -2.251181551716E-01 -3.098420031728E+00 -2.343538026791E+00 5.163082159968E-01 -1.415434431960E+00 9.549209209411E-01 5.636414025998E+00 1.900165968112E+00 3.285457921444E+01
 -6.533285973062E-01 1.449188905879E+00 -6.610586614184E+00 -2.071124791969E-01 3.234342839427E-01 3.935955497592E-03 4.836220978952E-01 6.914395145740E-01 -4.252888850789E-01 -1.941949880436E+00 -7.796479830306E-02 1.692285585125E-01 1.933201096331E-01 9.734032811583E-01 -7.685812944183E-01 -1.451441896165E+00 -1.808751095237E+00 -1.049863835722E-01 -3.120850973760E-02 8.851799462483E-02 -1.691681964540E-01 -2.393835230059E-01 -4.256818577796E-01 6.948064375448E-01 8.183172118224E-01 3.390233684078E-01 -5.800894437197E-01 1.848189200315E-02 -1.412571695001E+00 1.627588785722E+00 3.985734597179E-01 8.123579201515E-02 1.572299645466E+00 -6.422095226143E-02 1.563180187149E-01 -1.018847015004E+00 4.255371439308E-01 9.720519817005E-01 -6.183729542312E-02 1.426575131148E+01
 2.081185334569E+00 2.666125537331E-01 -7.140687219919E-01 5.190119901005E-01 3.450895124815E-01 -6.977778895505E-02 -5.506581278960E-01 2.170272493042E-02 -7.065189116494E-02 -2.355261808107E-01 -1.799830551505E+00 5.754218598580E-01 9.705429837209E-01 2.998258531706E-01 1.471965458069E+00 -9.474432637566E-01 -4.768150598735E+00 3.015343344589E+00 2.693716591992E-01 1.697562255258E+00 -2.821602700148E-02 -4.947393129517E-01 -1.183726332080E+00 -7.217013822874E-01 4.267138000076E-02 -1.007935635678E+00 -1.360872137717E+00 1.055407692288E-01 -5.303182397710E-01 -2.085073390125E-01 -2.790282456730E-02 3.953815672337E-01 3.691149149357E-01 1.369923854184E+00 -1.569057293927E+00 1.542273789513E+00 6.365166375328E-03 -1.844813480154E-01 -3.498979118893E-01 -6.989392618105E+00 2.237848163996E+01
 -4.136409382323E+00 1.420352260086E+00 -1.283743464514E+01 1.446205615003E+00 1.375687955097E-01 -6.512337771927E-01 2.338725241930E-01 -2.204106618721E-01 -1.056899518072E-01 4.597921923953E-01 9.365600070433E-02 -9.636102492663E-01 -4.199557423974E-01 -1.106733971371E+00 3.892275239293E-02 -5.248904633875E-01 3.050861333214E+00 -3.164054448676E+00 -8.892577626829E-02 3.593074052616E-01 7.881118764558E-02 -5.343414639068E-01 -1.215340453139E-01 -3.199854926827E-01 -4.508435520657E-01 7.613893744692E-01 -8.565867660713E-01 9.796067895330E-01 3.547815974198E-01 8.634453304926E-02 5.457965643319E-01 -1.626738761013E-01 2.246658095533E+00 3.158278550607E-01 -9.890919433218E-01 9.225399950547E-01 6.092857274416E-01 -6.271677398623E-01 1.859830211459E+00 6.571824375888E+00 -4.480958778115E+00 2.365784839095E+01
 -1.019313472083E+00 2.569184029409E-01 4.170875357753E-02 -5.695871376672E-01 -4.034986587258E-01 -1.350984879441E-01 6.654605909227E-02 3.875935767202E-01 -1.382831813533E+00 1.002834749578E+00 3.321819919003E-01 1.145698378596E+00 -3.871564175240E-01 -6.226793782927E-01 -3.133844150200E-01 -4.986328534051E-01 1.360816885144E+00 1.844997548981E+00 -1.567590612474E-01 1.672542171645E-01 6.270175898584E-01 4.811114477103E-01 -6.046709476431E-01 6.390484892068E-01 -7.278718356778E-01 -4.599082251430E-01 -8.416704224559E-02 -3.597081196450E-01 2.883601013911E-02 5.375334926210E-01 2.720431368456E-01 -1.609573438854E-02 -2.647300325612E-01 -4.280841714577E+00 3.008064324709E+00 -3.247102315830E+00 -1.194964521436E+00 -4.858744591761E-01 -1.539299186395E+00 -5.191888988243E-01 -7.964954532636E-01 -5.778782569075E-01 2.011404749396E+01
 -4.366625826780E-01 -4.403427255068E-01 4.220724525540E-02 2.592958170373E-01 4.757003838552E-01 -8.014072266594E-01 -4.905544722701E-01 -7.096903880873E-01 -1.638806979711E-01 1.014870118462E+00 1.652326613044E+00 5.090914845888E-01 -2.442168491191E-01 -7.201490320948E-01 -8.688284015845E-01 3.491505509584E-01 -6.431849284421E-02 -2.242242725687E+00 -5.312348302207E-01 -1.081928341802E+00 -3.395630587834E-01 2.930512316338E-03 1.205072885950E+00 2.303997471307E-01 2.370659158300E-01 -6.287334248755E-01 1.431257719758E+00 -1.293793613614E-01 8.028407163410E-01 2.479143890238E-01 1.182944335782E-01 -2.485296391076E-01 -6.936131198104E-01 2.179784649007E+00 -2.819073881499E-01 1.621972508345E+00 -7.545335976436E-01 -9.537807462092E-01 -1.690587010052E-01 -9.905843834927E-01 -7.320430589613E+00 -2.910518909678E+00 1.975426864935E+00 1.416846596861E+01
 -2.885896727629E-01 1.140407904679E+00 -5.356487552224E-01 -7.776850308485E-01 2.860458690758E-01 6.534054806251E-01 1.987767951266E+00 3.217799816420E-01 -1.677514466330E+00 -1.680489906571E-01 9.661027439430E-01 2.166930874279E-02 4.528680978904E-01 -1.257184672896E+00 1.599675690437E+00 8.832660974553E-01 -3.250689806190E+00 -1.098277048370E+01 -6.145381150099E-01 -5.521366001509E-02 1.057029894942E+00 -6.896511365621E-01 -9.151391785269E-01 4.044870761572E-01 -8.167101872239E-01 -2.808811243431E-01 8.301256057263E-01 -9.838198491282E-01 -1.210087979829E+00 2.714723150937E-01 1.238704665732E+00 -5.842200573687E-01 -1.530054608080E+00 -5.728633388243E+00 3.732035208737E+00 -6.340892902694E+00 2.310795308883E-01 5.078031334217E-01 -2.709646023783E-01 -3.222910868811E-01 -2.069259348384E+00 -6.042065248199E-01 7.845213152142E+00 7.414355845976E+00 2.407695752618E+01
 5.264003970323E-01 2.205763493039E-01 1.795370891977E+00 -2.877274404169E-02 1.445498472569E+00 1.968292721714E-01 1.644640875602E-01 -1.107829441970E+00 -4.724300613708E-01 -3.461886840771E-01 -1.771887915871E-01 -9.890757612471E-01 -8.380261612626E-01 2.678338144905E-01 4.863349590842E-01 2.630450230565E-01 6.192435412905E-01 1.044617102758E+00 -9.416060936313E-01 3.570503562557E-01 -9.462386346720E-01 -1.864263350697E+00 6.309183579517E-01 2.134903625889E-02 9.026940620082E-02 2.310281240799E-04 -5.979075234721E-02 6.540397981256E-01 1.380374447399E-01 3.222950988473E-01 -1.706405320011E-01 -2.794565429393E-01 -6.489519382040E-02 -1.777565842031E+00 -7.269180197735E-01 1.740800657710E+00 -1.090865120548E+00 -1.693737077941E+00 -4.498109174247E+00 5.549623975959E-01 -8.017064626813E-01 -7.683084863769E-01 -7.627526132852E+00 -1.210052799345E-01 2.708199049909E+00 1.650084408436E+01
 -1.158766239756E-02 4.407530841345E-01 -1.710297632027E+00 7.420020176188E-02 -8.007062297295E-02 -1.354520375894E-01 -6.469730516956E-01 -6.458744285261E-01 2.310690981678E-01 6.670492364176E-01 -2.989195916143E-01 -8.736653656529E-01 -6.835250336640E-01 5.319665412491E-01 -3.454387187003E-02 -1.477763027400E+00 -2.959574172053E-01 5.073561739952E-02 7.390658254391E-01 -1.221382381306E+00 -6.951275115877E-02 1.740608072566E-01 -1.141835520892E+00 6.048873016639E-01 -1.565336484072E-01 3.317613615760E-01 2.164292300519E+00 1.166120530683E+00 1.030394805112E+00 -5.427285728303E-02 -8.201121557848E-02 -7.138811834257E-01 -8.179787462386E-01 -1.719587804235E+00 -1.348527936178E+00 2.997429030511E+00 -1.265729370914E+00 -1.115375525757E-01 -2.165958010169E+00 -1.790991466316E+00 9.876188080342E-01 1.139641230267E+00 4.676739512382E-01 -8.065924899973E-01 2.280942475450E-01 5.058763287810E-01 1.285595069912E+01
 -8.653524116736E-01 3.143944245717E-01 -1.995925401330E+00 -3.257041962731E-01 7.480432696823E-01 2.265484074377E-01 -4.196130061586E-01 -1.165524983111E+00 -7.893470176987E-01 -7.920112275884E-01 1.065578313183E+00 2.926357298874E+00 1.261154403312E+00 2.310194634841E-01 -6.631533830256E-01 -7.767992929859E-01 5.443113566118E-01 5.425635292455E-01 -3.118553569572E-01 -1.262914231077E+00 2.184312791072E-01 -7.287387888121E-02 3.006223039139E-01 5.256015555800E-01 4.802163611656E-01 -4.199813482057E-01 6.342211327634E-01 1.551625190360E+00 -1.228910364017E+00 7.714548273690E-01 9.276458997183E-02 -8.754112190117E-02 -4.282947536242E-01 3.089985374146E+00 2.818565660630E+00 -8.510401606672E+00 -4.742236336939E+00 -2.499138445418E+00 -9.932720228894E+00 -1.350238158375E-02 6.668250982519E-01 -4.760223620195E-01 7.464167041260E-01 2.300273893573E-01 9.158068078248E-01 -4.120159970509E+00 8.028582167694E+00 2.756602925125E+01
 1.391617723743E+00 6.992236126409E-01 -2.516831164453E-01 -1.726356206440E+00 3.053977007649E-01 -2.418051173182E+00 2.506216682349E-01 1.009245894617E+00 -1.896533893832E-01 -6.012176309149E-01 5.450734228548E-01 -7.508277985648E-01 -7.422923789510E-01 -7.733012785282E-02 3.653820745513E-01 -1.318078203101E+00 -5.414958209179E-01 5.246776744476E-01 -3.779537460637E-01 2.530517546928E-01 -5.371898701507E-01 3.448741851262E-01 -1.215383296988E+00 4.958678430233E-01 -9.550329477158E-01 9.823467886281E-02 -2.976012600768E-02 7.194423513937E-01 -9.054430102911E-01 -1.168665847862E+00 -4.159104874754E-02 1.636459371568E-01 1.803049612358E+00 -1.196105403590E-01 3.197964434006E-01 1.141957782350E+00 -1.789502525549E+00 5.521141182817E-01 -1.555122546885E+00 5.680245256189E-01 -7.535251030999E-01 -6.052354087763E-01 2.036772851136E+00 1.797582137699E+00 9.464020598823E-01 -6.390145628596E-02 -3.474834091078E-01 -3.281599045446E-01 1.097064724938E+01
 -2.168227653377E-01 -2.353154059113E-02 1.577075306312E-01 1.322138673060E+00 -9.289387228386E-01 -2.714403715491E-01 -3.927943324830E-01 2.510297401383E-02 6.033496039434E-01 1.005635104962E-01 -3.025433228548E-01 1.559895975161E+00 2.000353724073E+00 8.470554776933E-02 4.649407055060E-01 1.535122803914E-01 -3.214345624679E-01 -5.098889738001E-01 1.018237311432E+00 5.101308053198E-01 2.886085065172E-01 -5.706926521574E-01 -4.702580281470E-01 -7.040674685794E-01 -2.840386915720E-01 -6.472346430042E-01 -1.160040646703E+00 -1.640328655844E-01 -3.622663309198E-01 -1.757960626005E-01 -1.180077691055E-01 5.504300083865E-01 -2.205040801640E+00 -9.110040167593E-01 -6.331323889872E-01 1.163535382521E+00 1.955747966143E-02 -5.476966096840E+00 3.644156762155E+00 2.825848447780E-01 -5.385622382537E-01 -4.979647471611E-01 1.105403802469E+00 1.260258956968E+00 -6.569363576010E-02 -1.503353762009E+00 -5.472475100275E+00 -1.515244235749E+00 6.675879594513E+00 1.896976523553E+01
 9.338777666094E-01 -1.662557330316E-01 2.858950123914E+00 -4.750773913540E-01 -7.990320019609E-01 -2.712909014756E+00 2.470663796934E+00 8.216862028137E-01 -9.533846450930E-01 -6.784743463114E-02 1.896798042186E-01 6.069099932272E-01 -1.187564097336E+00 -6.429251143575E-01 -2.900072264353E-01 1.835017045934E-01 3.861491563913E-01 6.566559163895E-01 -1.073311449058E+00 6.062868368738E-01 -2.297263196588E+00 3.842712063995E-01 3.461943507195E-01 -1.779143421123E+00 2.810759639489E-01 -5.203491330683E-01 -1.663892393582E+00 -1.057225383047E+00 8.364634209554E-01 7.516122501645E-02 -4.148454817426E-01 -4.127599582703E-01 -1.644864333364E+01 -5.931261304030E-01 -1.326989747037E+00 1.223971815109E+00 1.445410080312E+00 3.433150682155E+00 -5.405311171496E-01 -5.956745904311E-01 -2.630531522875E-01 -1.320344269215E+00 -6.746460827880E-02 4.607828367807E-01 -1.099818177465E+00 -1.360837866913E+00 -2.636278501808E+00 -1.350119396564E+00 -3.426049154038E+00 -4.482473395508E+00 2.732901116533E+01
 -1.935112843587E+01 1.913011967120E+00 7.264491932755E-01 -3.222780139014E-02 8.809428940480E-01 3.103031864368E-01 3.852836559075E-01 9.017975828145E-01 -3.915182958965E-01 -1.545795928370E-01 -5.591095336460E-01 -1.018266555181E+00 9.582190778504E-01 8.557905945267E-02 3.139523158554E-01 -5.022452545250E+00 7.261734888369E+00 1.975222877538E+00 1.353897567727E+00 -1.362741690885E+00 1.877005367684E+00 -1.639094822779E+00 1.923174899595E+00 -1.775446805912E+00 -1.164303543391E+00 5.202071903474E-02 -5.126069022882E-01 -1.655098362631E+00 -2.314655258352E-01 8.536895425410E-01 -1.576539367607E+00 2.035887171327E-01 2.156319521569E+00 4.158999837333E-01 -1.682419864104E-02 2.896056963282E-02 -1.904398680030E-01 -1.013828565011E+00 -9.571747040330E-01 -3.216057856814E+00 -2.665339699736E+00 1.206766463930E+00 1.278128076626E+00 5.996311971006E-01 1.150299405296E+00 -3.498098225555E-01 -4.709675452048E-01 1.008675977563E+00 -5.284290642137E-01 -3.833837452580E-01 -6.201817699438E-01 2.975908243895E+01
 -7.466890144552E-01 -1.473205819039E-01 1.267887760927E+00 -2.839487896147E-01 9.351101536150E-01 5.370555330267E-01 -1.306087371307E+00 6.135284015715E-01 8.636106102808E-01 3.721415853969E-01 -8.655090583184E-01 5.004342265907E-01 -1.170253256554E+00 -1.311081337185E-01 -1.055556453210E+00 7.748568707795E+00 -1.245787034771E+01 -3.206411933367E+00 5.465401759736E-01 6.544102304554E-01 -7.695096001361E-01 1.634335764290E+00 -2.956345321530E+00 1.316985708998E+00 9.028222262449E-01 1.135763394420E-02 -3.970342801683E-01 8.373640559573E-01 9.693163468100E-02 -4.683695096171E-01 7.954419152962E-01 -1.016880014091E+00 3.268764437769E-02 5.185049121120E-02 -5.833764582524E-01 3.463824950417E-01 -4.235188035796E-01 -4.170280026251E-01 -1.190320674357E-01 -2.999683609672E-01 -4.663359777043E-01 -4.643536491207E-01 -4.019741863482E-01 -7.940002467195E-01 1.694270089693E-02 -8.245550183832E-02 2.598992223602E-01 -2.327971908140E-01 -4.214011924965E-01 2.638224112321E-01 -3.658732992686E-01 -8.234899956888E+00 1.608891428955E+01
 -5.459534765531E-01 4.107083910947E-01 -5.221742443695E-01 8.106669690356E-02 -2.934147912089E-01 2.340874107202E-02 -9.585385487593E-01 4.385982952805E-01 -3.685592128759E-01 -7.236901888808E-01 3.177599966584E-01 4.283685693169E-01 -7.582452363884E-02 6.161562651581E-01 -3.880030879903E-01 3.286845607416E+00 -4.547159968707E+00 -2.073286425956E+00 5.053728500809E-01 -4.033908426899E-01 -9.890248993409E-01 -2.722822980141E+00 2.238670136743E+00 -2.786533422426E+00 -7.033647943045E-02 1.451939657174E-01 -2.242827822496E-01 -6.223485923234E-01 1.663818228914E-01 1.418949515936E+00 3.520555938182E-01 3.216585352103E-01 -2.746709692265E-01 1.436682255183E-01 -1.265295218085E-01 -7.394453114792E-01 6.897467636966E-01 -1.177277636924E-01 -9.987962087040E-01 3.468460835493E+00 -2.724484113961E-01 -4.899459627222E+00 -5.391606087368E-01 -3.824800973514E-01 -7.714282828578E-01 1.186696383237E+00 -1.015940126292E+00 -2.894028708705E-01 3.999257301681E-02 4.100090933278E-01 2.773838074162E-01 -3.731807338602E+00 2.059279557408E+00 1.145305011902E+01