#BIOSYM hessian 1
@Type: Hessian Update
@Units
 distance: 	A
 energy: 	Kcal/Mol
#header
@natom 19

#label
L1      L2      L3      L4      L5      L6      L7      L8      L9      L10     L11     L12     L13     L14     L15     L16     L17     L18     L19

#element
Li Li Li Li Li Li Li Li Li Li Li Li Li Li Li Li Li Li Li

#matrix
57
 1.800120915084E+03
 -9.692693796501E+02 2.502931519598E+03
 -9.292726351454E+01 8.598822562613E+01 9.612472491654E+01
 -8.084423134531E+00 -4.156614295191E+00 -5.759981664355E+00 8.272673596102E+02
 8.334011256282E+00 -5.975116402588E+00 3.963547221527E+00 9.960290049479E+01 7.606575293704E+02
 -4.400828219087E+00 -1.834686006381E+00 -2.152992377422E+01 3.199387984685E+01 -4.936231535801E+01 3.415935806521E+02
 2.126457158563E-02 -4.655610671491E+00 2.452478615822E+00 -2.150521940830E+02 -8.719837371553E+01 8.660434226187E+01 3.245535619202E+02
 1.592773034577E+00 -6.354392254661E+00 2.970044522045E+00 -9.764755000183E+01 -3.469109692448E+01 3.103251955621E+01 6.729076263359E+01 4.022511704049E+02
 7.854399965516E-02 6.412586429033E+00 -7.015119016988E+00 8.981135462800E+01 3.656253878457E+01 -4.944447499232E+01 -9.735668261626E+01 1.260236599593E+02 5.806467855605E+02
 -9.642381309369E-01 -1.133151274575E+01 1.159309742758E+01 -1.365552667173E+01 -2.028154107445E+01 -7.566976547227E+00 -9.528436701714E+01 3.882121902409E+01 2.398193576113E+01 4.169037520770E+02
 3.827832742194E+00 -1.476292348626E+01 1.016205293343E+01 -3.455402565230E+01 -2.832351959528E+02 9.314591601774E+01 4.069709011897E+01 -6.149268781373E+01 4.182778403181E+00 1.624842050555E+02 5.346338589648E+02
 1.007294038116E-01 -1.455973664828E+01 7.923039357488E+00 7.416683538971E-01 9.151265758938E+01 -5.897738259483E+01 -2.132408820968E+01 -1.621821464408E+01 2.801581231473E+01 2.670853743812E+02 1.212599374312E+02 6.707739243277E+02
 -1.451499325785E+00 1.742934498381E+01 -1.120071052800E+01 -2.621404162891E+02 5.486451372116E+01 -9.343009639707E+01 5.190666105157E+00 1.875677696632E+01 1.114400137284E+01 -2.994388811946E+01 1.619867180852E+00 5.853555515341E+01 6.034993854967E+02
 -2.884363299563E+00 3.897687733518E+00 -6.937065794035E+00 6.382984176979E+01 -2.235130342324E+01 3.240077210232E+01 8.289518410332E+00 7.047974069557E+00 -7.867367000187E-01 -4.941250371424E+01 -2.384657518397E+01 4.291214016769E+00 7.710643452908E+01 3.135160637763E+02
 1.144117127522E+01 -4.439192635513E+00 4.597108459997E+00 -8.975758414202E+01 2.971809888302E+01 -5.003730828325E+01 -1.730597995887E+01 -1.244157949863E+01 1.731447311315E+00 -1.592116129164E+01 -3.201163092316E+01 9.971831983320E+00 -1.299510133105E+02 -1.716479234041E+02 5.281248388562E+02
 -1.446728864845E+00 8.038435866488E+00 -2.226607189034E+00 -1.026282992711E+02 -1.292594095278E+02 -5.341357618822E+01 3.142860164056E+00 1.202603886880E+01 7.807351695129E+00 2.264956993066E+01 2.179857657343E+01 3.041721959814E+01 -3.751490659423E+01 2.688399757769E+01 6.078933103181E+00 4.244127666379E+02
 -1.576883569221E+00 3.055040435014E+00 2.164230456199E-01 -1.173085101964E+02 -1.379592421258E+02 -6.912145275903E+01 -6.057696852667E+00 1.294954950933E+00 7.154297712372E+00 1.137106474495E+01 2.772595593441E+00 2.203892548839E+01 2.432178278909E+01 -1.113040098442E+02 4.949622252295E+00 2.861338505983E+01 3.018854079234E+02
 2.303080886812E+00 8.049518223713E+00 -6.770265101905E+00 -6.033434020756E+01 -6.995694798052E+01 -4.616974680101E+01 -9.106337247293E+00 -4.563117821278E+00 4.535312558944E+00 9.861151420513E-01 -7.643203760650E+00 5.558209506411E+00 -6.107603416242E+00 -1.481170217206E+01 1.704323351476E+01 -7.312893019445E+01 1.405888577479E+02 5.710055004448E+02
 8.483006849575E-01 -4.529566133941E+00 5.570943762609E+00 -6.644794994060E+01 9.190955812846E+01 3.525225782711E+01 -7.724242113463E-01 -1.834451259713E+01 -3.479657611271E+00 -1.238780384231E+01 -3.801689853614E+00 -2.417068438846E+01 4.718120815115E+00 5.054945334258E+00 -1.216004209917E+01 -5.524873435618E+01 -1.735458099178E+00 -1.919760862122E+01 4.381796891525E+02
 -1.435420966638E+00 9.368841240191E+00 -6.697015520221E+00 9.573805917138E+01 -1.298452461657E+02 -4.783867151329E+01 -2.035312005649E+01 -4.795113276872E+01 2.114464278460E+01 1.786120775729E+01 9.317825598899E+00 3.409591547207E+01 -4.116848141375E+00 -8.235437350322E+00 1.934845232274E+01 -1.209872222463E+00 4.212165353855E+00 8.857901577406E+00 7.342559525460E+01 3.943485339389E+02
 -5.318623956427E+00 9.416077323320E+00 -1.030916712172E+00 2.980029352061E+01 -4.413728182534E+01 -8.919827667412E+00 6.918672359304E+00 1.477295285755E+01 2.548243913004E+00 6.803936537989E-01 5.458957919261E+00 -1.127508916204E+00 -6.864566339813E+00 1.028759979620E+00 -2.917910932221E-01 -1.597313922577E+01 -2.018922130689E+00 2.326562524717E+00 -2.312611962962E+01 3.368299006971E+01 5.940653175553E+02
 -2.515592372813E+01 5.188740886056E+01 -1.832774615927E+01 -1.064396027186E+01 4.072378183402E+01 7.007017553092E+00 -9.002206935107E+00 8.286995338814E-01 1.263734243694E+01 -3.848040280140E+01 -1.715076484187E+01 9.236881011837E+01 -1.913726075935E+01 -2.592904777752E+01 -1.148154626429E+01 -1.692440388094E-01 6.308595838277E+00 1.193787480692E+01 -7.221780112318E+00 1.292936783152E+01 -1.255003155152E-01 3.168377830012E+02
 2.504252871738E+01 -4.285600867067E+01 1.783415606597E+01 3.399972607729E+01 -3.320346290732E+01 -1.044873678727E+01 8.962707873766E+00 -4.381289708298E+00 -1.471924372430E+01 -3.003592808997E+01 -1.379383143481E+01 -2.669569494002E+01 -2.419873312773E+01 -2.606925983169E+01 -7.287734374031E+01 2.074037782447E+00 -8.990454193154E+00 -1.341747792449E+01 1.082322469919E+01 -1.361510572210E+01 6.018807707249E-02 7.720978102508E+00 3.053263583059E+02
 5.553323045099E+01 -8.045848911025E+01 -2.314316815281E+01 1.942517821291E+01 -2.775134626991E+01 -3.916434805750E+00 9.790826822145E+00 1.242736330202E+01 -3.672241116885E+00 8.118911591667E+01 4.181202736663E+01 -1.557749565528E+01 -6.184953626886E+01 -6.253251605970E+01 -3.243537079178E+01 -1.473685507921E+01 -5.869589067236E+00 -4.167368002993E+00 8.322057546765E+00 -1.184142617150E+01 -6.319698468814E+00 8.301365176704E+01 -1.157536459500E+02 4.967104922032E+02
 -6.419738700762E+01 -1.164110998800E+01 -1.127283044601E+01 -5.820103113270E+01 -2.028256757154E+01 2.618556349621E+01 -1.265054130131E+00 6.042465891175E+00 7.883211738802E+00 1.035898028887E+01 8.340903015627E+00 2.017690205445E+01 1.531652172404E+00 -3.257745626613E+00 1.089255846797E+01 -1.588999323905E+01 1.897506866644E+01 4.254121983692E+01 -2.369920577157E+00 4.038829017490E+00 2.368099242786E+00 -5.607794794699E-01 -1.438243473300E+01 -4.258360058921E+00 1.293051873040E+02
 -4.528074968787E+01 -1.844399179933E+01 -6.464789998466E+00 -2.093327295843E+01 -9.567195564633E+00 2.190649737171E+01 1.305126968491E+01 1.486899419262E+01 1.695644937790E+00 1.612432943064E+01 2.873529502786E+01 1.704281548931E+01 -3.014366525394E+01 -4.501564592075E+01 6.604268709097E+01 -5.237435139086E+00 -3.700977470322E+01 -7.175393982499E+01 8.372631514163E+00 -1.441338295661E+01 2.610264498246E+00 -1.922914941757E+01 -2.213358653311E+01 -3.973422859108E+00 5.858477560639E+01 3.537928237479E+02
 8.202188499891E+01 -1.453821398604E+01 -2.423308204169E+00 2.410650973066E+01 1.504078626167E+01 2.350391271119E+00 2.821260946016E+01 1.721176173092E+01 -1.180839163683E+01 6.645289648380E+00 3.745658886956E+01 -1.576731380392E+01 -4.544257358681E+01 5.115048893619E+01 -8.269391880840E+01 1.184294547784E+01 -9.286985972837E+01 -1.849990853405E+02 2.301103376387E+01 -3.194577897214E+01 3.088012205294E-01 -1.661607181314E+01 5.212170309930E+01 5.358439165657E+00 4.275055065666E+00 3.097916899227E+02 7.407515988281E+02
 7.808724655856E+00 -2.187345216526E+01 -2.431843023540E+00 3.147302750914E+00 -1.490043911463E+01 9.335563506552E+00 7.829581366342E+00 8.220890280037E+00 -1.771691613385E+00 1.827973862805E+01 2.425910510696E+01 1.794460770850E+01 -2.541486291535E+01 -5.789554525015E+00 9.751796691320E+00 -7.783636240869E+01 2.344448250148E+01 -8.734944785370E+01 -1.462470354323E+02 -5.915241241855E+01 1.617596893728E+02 -5.841566540794E+00 7.565622805012E+00 -1.404154452555E+01 -2.878914469765E+01 1.117651570643E+01 -5.274155052314E-01 3.853534956330E+02
 2.268524927746E+01 -7.337500930785E+01 -1.761955165627E+01 -4.205947438913E+00 -6.152242339228E+01 2.410841863113E+01 3.489045593656E-01 1.146362327251E+01 1.059360725208E+01 2.363254048668E+01 2.173415836963E+01 3.830349506502E+01 -1.560261119951E+01 -9.585227762078E+00 2.188299549776E+01 1.741950646576E+01 -1.199320243662E+01 4.934152619275E+01 -5.027330673981E+01 -1.407324391150E+01 5.452357686022E+01 4.090433952898E+00 -3.460811405994E+00 -1.074123444863E+01 1.127211247309E+01 -3.936550621435E+01 -3.676901832937E+01 1.511994696615E+02 2.709543076268E+02
 -6.982426168545E+01 1.024300069940E+02 4.922076299154E+00 5.866228762363E+00 2.982040766843E+01 5.978007895388E+00 1.456670025420E+01 8.062560633151E+00 -7.164036205909E+00 9.360846838127E-01 2.025399959629E+01 -1.741080611263E+01 -2.097305163619E+01 -2.558860077622E+00 -2.748269827363E+00 -1.000170917356E+02 2.474895524174E+01 -1.270867556262E+02 1.698826211845E+02 3.971364971342E+01 -1.723188208721E+02 -1.198940630672E+01 2.363304149325E+01 -8.886115421459E+00 -7.796465272216E+00 3.175462020758E+00 3.132969580190E+01 8.648345378866E+01 5.612728262068E+01 6.068245303719E+02
 -7.314546544397E+01 3.377651672532E+01 1.810615387635E+01 -6.678236941888E+01 1.587338393039E+01 -2.383537113505E+01 -2.493552413517E+00 -5.083463578715E+00 -2.167376089727E+01 -2.594917971927E+01 -2.277628262951E+01 -4.299242060087E+01 2.148918843163E+01 9.151222281030E+00 -2.270873445153E+01 1.356239564117E+01 -9.173555217539E-01 -9.931647710964E+00 -6.057209579720E+01 -8.303858920133E+01 -1.021809826462E+02 -2.536498572950E+00 4.549960813212E+00 1.600034091457E+01 3.003794449843E+00 2.626519594448E+01 3.781427812566E+01 -2.299529955942E+01 -1.723155976985E+01 2.114286712276E+01 3.599383875638E+02
 2.388145923103E+00 -1.176183190120E+01 -4.099615855996E+00 8.352013098757E+00 3.533568409887E+00 -6.950884256680E-01 -8.946124517447E-01 -8.353507528587E+01 9.725549243240E+01 -8.420725510539E+00 -1.703127129700E+01 -4.548498904578E+00 1.600822683040E+01 2.884957926018E+00 -2.115044155088E+00 6.967011384301E+00 5.920062760570E+00 4.506816628705E+00 -8.860667343147E+01 -1.014029841074E+02 -1.350076206479E+02 4.725263102849E+00 -9.464788218401E+00 1.024010848749E+01 1.954625783840E+00 4.847475855000E+00 1.541683802747E+00 -1.700065767451E+01 -1.268164594514E+01 -3.464415804198E-01 1.485220049930E+02 2.812710332238E+02
 -7.682632453892E+01 8.193094945255E+01 4.134231853546E+00 -3.031472241458E+01 4.489187994790E+00 1.056270667689E+00 4.091968645126E+00 9.919868117551E+01 -1.254204534856E+02 4.399948100851E+00 1.137592686892E+01 -5.636861994864E+00 -1.385860563226E+01 3.790455246644E+00 -1.287375100747E+01 -6.815676252612E+00 -6.791200141887E+00 -5.424919314593E+00 -9.336443104020E+01 -1.420079902877E+02 -1.696264127567E+02 -1.380654844740E+01 1.357699058846E+01 -5.406790058488E+00 -6.402324466917E+00 -2.979707847932E+00 1.497951686299E+00 -3.449733168895E+00 -1.259088274426E+01 2.853608958768E+01 -5.863560783927E+01 -5.362617387151E+01 5.604150676204E+02
 -2.658859187224E+01 -4.736641913091E+01 -9.024866524895E+00 -2.815563745535E+01 -2.819419012878E+01 -3.219209235023E+01 -1.908220891622E+01 -7.834167643228E+00 3.932729579108E+01 -6.216767710563E+01 -2.467265836182E+01 -8.378478082781E+01 3.377849172730E+01 7.244095095870E+00 -1.239240031357E+01 2.289914140265E+01 5.891452449934E+00 -1.530143442031E+00 -1.159578285928E+01 1.107312639180E+01 -1.843832396564E+00 -2.461850188654E+01 -1.571984605310E+01 -7.249441073816E-01 1.120533313483E+01 2.590143801453E+01 2.735557607317E+01 1.655978205671E+01 2.403325078420E+01 9.374574548176E+00 -2.392249474455E+01 1.094210907898E+01 2.322290159078E+00 4.375497144142E+02
 -6.862432010572E+00 -3.104491654093E+01 7.447863946625E+00 -3.068399586812E+01 -3.909303505847E+01 -1.908587177236E+01 1.978847982417E+01 -2.972476801527E+01 -7.248233747427E+01 4.384751562063E+00 -1.051438562478E-02 -2.257606138893E+00 -1.769511595685E+00 2.674519392761E+00 -7.142658515226E+00 1.120716769691E+00 -4.913495073732E+00 -6.713816457239E+00 4.941947110006E+00 -6.323055683135E+00 -3.789358691573E-01 -4.583747908750E+00 7.517197053122E+00 1.395698655614E+00 -1.479805208598E+00 8.826619063313E+00 1.760754479842E+01 2.143404438323E-01 -3.145512073790E+00 7.366122430848E+00 8.654999181577E+00 -3.932150258216E+01 4.809616048584E+00 1.296336323323E+01 1.201100790915E+02
 2.721631156595E+01 -9.063920291250E+01 1.906339352105E+01 -2.712549039524E+01 -1.850408763148E+01 1.432045998518E+00 6.435107768060E+01 -5.314876696476E+01 -1.915768056789E+02 -4.659459605774E+01 4.025403812983E+01 -7.754613442645E+01 -3.666280759114E+01 1.758288950651E+00 -1.075125891551E+01 -2.072035354725E+01 -1.736796446411E+01 -1.351839187826E+01 1.865164965206E+01 -2.856297861815E+01 -6.119686615712E-01 -3.828072149681E+01 3.474566560463E+01 1.027002719363E+01 -1.247956398726E+01 -7.181929998977E+00 7.366263706128E+00 -1.123827401857E+01 -2.771931307793E+01 1.834940159131E-03 1.813859633502E+01 -1.304696259759E+01 2.341965723397E+01 -2.735881609077E+02 7.620528211020E+01 6.056720092256E+02
 -2.505696607686E+00 -1.599258706178E+01 1.086084889545E+01 -2.616124068395E+00 1.699087728275E+01 -2.454165274314E+01 -5.943048065001E+01 -5.904460036443E+01 5.458018751041E+01 -2.670302537921E+01 -4.730540348691E+01 -6.965542470827E+01 -7.802090011975E+00 2.315358920062E+01 -4.491138429960E+01 3.098644182634E+01 1.428559546496E+01 4.615152726152E+01 -4.750686641083E+01 6.681299885956E+01 1.968704846847E+01 4.158527714024E+01 -5.613245990071E+01 1.957070126752E+01 2.621328431433E+01 2.615366359066E+01 -9.056654380188E+00 3.055965013376E+01 5.258800368430E+01 -5.276023733910E+00 -5.851719140693E+01 -1.141364962605E+01 -1.991045179494E+00 -4.399260785284E+01 -1.947361425835E+01 -4.682453922708E+00 1.629106117522E+03
 3.290372244642E+00 2.299805017172E+01 -1.738549074261E+01 1.445734366820E+01 -2.084148895209E+01 3.538637967285E+01 5.160524643271E+01 5.120560698978E+01 -7.007782300449E+01 3.427424857268E+01 1.830864089060E+01 1.019741823195E+02 -6.524874909403E+01 -2.214082763309E+01 8.147490665368E+01 -1.058519185617E+02 -5.266815881043E+01 -8.233776522479E+01 7.721960778970E+01 -1.015400641797E+02 -3.019325609752E+01 -6.043524184641E+01 9.352984887733E+01 -3.389127714465E+01 -4.202477634622E+01 -4.355844628176E+01 1.170275150376E+01 -5.041809824353E+01 -8.372427755207E+01 1.067802677100E+00 9.622792968609E+01 1.855088298472E+01 1.021907456615E+01 7.180457135136E+01 3.126959281644E+01 6.851559869113E+00 -1.361670942052E+03 2.838254535440E+03
 4.576256493208E+00 -3.060497427797E+00 -4.091636502418E+00 2.028503635329E+00 7.086268624749E-02 -8.234388110362E+01 -1.699808656789E+01 -1.679110856178E-01 1.579110509407E+01 -1.932300137942E+00 -4.622200315975E+01 -4.293586378327E+00 4.334559640033E+01 -1.168767754384E+01 -5.216019064898E+00 4.812393836476E+00 1.490874855588E+01 1.546925805819E+01 -1.665050488738E+01 2.257988199280E+01 2.170690966774E-01 1.362547004356E+01 -1.952789469438E+01 6.882106613819E+00 4.148237858382E+00 -7.073194536715E+00 -2.583363392772E+01 3.046824240963E+00 9.438856064676E+00 -1.153837683943E+01 -1.216940412262E+01 -3.599486850537E-01 -8.839488487523E+00 4.559989772817E+00 -5.363532518663E+00 -2.205787022033E+01 -1.871191511357E+01 1.863473690197E+01 1.130475017009E+02
 -3.201495594462E-01 5.603079770946E+00 -5.327668539116E+00 1.573884841888E+00 -5.508987997674E+00 -9.541568675770E+00 -9.852677137869E+00 -7.225108771117E+00 2.777631586025E+00 2.637418983123E+00 -4.943672186600E+00 9.897373253980E+00 4.409421668426E+00 -5.335659676608E+00 9.543313823165E+00 -1.492815622968E+02 3.583580294351E+01 2.032730072290E+02 -8.296147907356E+01 2.866302563442E+00 -8.701655919272E+01 1.384778596246E+01 -1.233339316117E+01 -2.264043042897E+00 5.375238133047E+00 1.410300285436E+00 -1.527016825351E+01 -1.946487002590E+00 9.898167237825E+00 -6.564105570463E+00 -1.057197946012E+01 3.558831682229E+00 -6.261695955749E+00 -3.444396947762E+00 -7.848830961478E+00 -1.373586090011E+01 1.736113892451E+01 -1.276463996043E+02 9.840726663784E-01 3.452865969190E+02
 -3.155755556324E+00 4.823854701551E+00 -7.766765761233E+00 4.644534833479E-01 -6.196410605464E+00 3.396490427337E+00 1.101713925501E+01 1.851435171067E+01 -3.251014717578E+00 2.395042655808E+01 3.684741434881E+01 7.023648193955E+00 -2.489941005242E+01 -1.591977506590E+00 1.241547187898E+01 2.748916762966E+01 -3.753518457928E+00 -1.882203355953E+01 -5.286542718675E+00 -4.379532480595E+00 -8.053791593961E+00 -6.408666925137E+00 3.836826323772E+00 -1.378192655519E+01 -3.891018748671E+00 -1.827722136575E+01 -1.829290767852E+01 -1.163124478214E+01 -1.379416161914E+01 -1.245082747310E+00 1.511222539543E+01 7.543237934027E+00 -4.195553358547E+00 1.987002337246E+01 5.480889147195E-01 -1.269551606816E+01 -7.677773934808E+01 -6.897930076719E+02 -4.212914332573E+01 1.267165348964E+02 6.878687871955E+02
 -5.222466226224E+00 -3.627102132914E+00 -1.837914177105E+00 2.558828626992E+00 6.317383828121E+00 2.960078181133E+00 2.110143844473E+00 4.101954224760E+00 -3.584938299570E-01 6.154456178902E+00 1.265684935428E+01 -4.944490101074E+00 -2.091434892131E+01 -2.677291065846E+00 6.598688550101E+00 1.822375604324E+02 -3.267937606701E+01 -2.280208619944E+02 -8.627122870927E+01 -1.614663306644E+01 -1.117061869554E+02 -4.277042186786E+00 1.486270460617E+00 -9.953217567685E+00 5.168091434265E-01 -1.739478856487E+01 -1.242578529910E+01 -8.569149538576E+00 -8.830138312265E+00 -1.855236677777E+01 1.210555744572E+01 5.315932140487E+00 -4.023645519637E+00 1.578883574716E+01 9.306001977182E-01 -7.033530222914E+00 1.121542715807E+02 -3.284580063641E+02 -5.357514378515E+00 -7.784907027210E+01 1.325390298937E+02 3.838500546727E+02
 5.115277057094E+00 -6.716513981207E+00 7.474111968825E+00 -8.168664307844E+00 3.039516896524E+00 7.807256372713E-01 1.285463829197E+00 -2.219542673663E+01 -4.981192722839E+01 -1.679103148688E+01 -2.518649083038E+01 -2.860077183838E+01 3.336306413550E+01 5.516445230704E+00 3.312518683363E+00 1.615964161410E+01 2.564264368001E+00 3.575944620211E+00 -1.153990448032E+01 -2.837437386741E+01 3.458594195647E+01 -2.746599812273E+00 -1.717855172590E+00 1.482987336417E+01 5.922557897747E-01 1.605539684856E+01 2.201286127526E+01 1.218295132116E+01 8.419031555130E+00 9.790571421482E+00 -1.150646858813E+01 -8.342777341900E+00 -4.460452911969E-01 -1.741772433716E+01 2.401892510451E+00 1.661228776828E+01 -6.825521182006E+02 1.561235919847E+02 4.291865770753E+01 -9.133234288429E+01 -5.705871832713E+01 1.737001398288E+01 7.350946002147E+02
 -2.088569894637E+00 -2.908431274476E+00 2.475115600746E+00 -2.342932509743E+00 1.017517984088E+00 9.410463723336E+00 -1.754066031883E+01 -1.568212658605E+02 -2.016465832295E+02 -3.376023361358E+00 1.167005244442E+01 -7.740145543194E+00 -1.879235787487E+01 -8.408805451826E-01 -5.377657167120E+00 -1.687900215676E+01 -7.932320994959E+00 -3.688602923545E+00 -2.032076751695E+01 -7.537445550637E+01 7.953759192944E+01 -8.556824057675E+00 1.775508441385E+01 -2.629663381936E+00 -9.383208796631E+00 -6.221867935456E+00 6.563656727909E+00 -2.893431948141E+00 -1.393234913551E+01 5.143727165857E+00 1.546309874487E+01 -1.737293538743E+00 5.199008307401E+00 1.188549423835E+01 6.086455729319E+00 1.306584762697E+01 9.658727252647E+01 1.910534682606E+01 -1.423522300142E+01 -7.134533584210E+01 -5.145866949857E+01 -9.481551702663E+00 9.188632974679E+00 3.049367162109E+02
 -6.430839073239E-01 -2.381479241419E+00 -2.073085976677E+00 -3.779057093233E+00 7.951642205706E-01 8.892216106816E-01 -3.304954872550E+01 -1.875462882105E+02 -2.312980297565E+02 1.481695877754E+01 2.189810448709E+01 1.747515581889E+01 -1.019411253351E+01 1.191931316941E+00 -9.292236448806E+00 -4.315596312378E+00 -5.722677555397E-01 -2.358887855100E-01 4.164763952885E+01 7.791899964069E+01 -1.109757036981E+02 1.464180583953E-01 2.587914436238E+00 -9.457142754131E+00 -3.323218714811E+00 -1.513014777391E+01 -1.629718586096E+01 -8.080257043646E+00 -9.641904670641E+00 -7.071232153863E+00 9.956205872130E+00 6.231198832958E+00 -1.547186886916E+01 1.915367254167E+01 -2.942116881309E+00 -2.364274982618E+00 2.456660889516E+02 -2.174622036303E+02 -5.865766518769E+00 1.837411174292E+00 -2.032620873013E+01 8.938557201475E+00 -1.001882597710E+02 1.171937438188E+02 3.864924059132E+02
 -9.468948001805E+02 9.599632661599E+01 1.822667645529E+02 8.001443172487E+00 -1.188925690944E+01 1.385982310717E+01 7.808299156318E+00 1.461838248199E+01 -2.027368761841E+00 3.292486899530E+01 3.497209746926E+01 3.018332619224E+01 -3.535976186878E+01 -8.447375451348E+00 4.780537906397E+00 -1.490721175087E+01 -1.706646778093E+00 -2.544843313478E+00 4.978890360078E+00 -9.898160273930E+00 -5.926666452663E+00 -1.208362913513E+01 -3.453740406605E+01 -1.180595413574E+00 1.181412592822E+01 -4.475866381178E+01 -1.515818231693E+02 -1.849963438297E+01 -2.046708737580E+01 1.536940037852E-01 3.831925093672E+01 1.160803748146E+01 3.418121706918E+01 2.811430466212E+01 -1.618146923654E+00 5.028220992594E+00 5.620115775372E+01 -9.202151406543E+01 6.831635122514E+00 2.309032513700E+00 -1.117715800877E+01 -4.930210460654E+00 1.032467199183E+01 -5.009202387417E+00 -4.579269675137E+00 1.029145732644E+03
 1.321646975005E+02 1.532578803259E+01 -1.770790283881E+01 9.731043174393E-01 -6.055623649736E+00 -1.819155359455E+01 -1.857474121072E+01 -1.224471876125E+01 8.048589286957E+00 2.026588154029E+00 -1.962852282287E+01 1.911288452703E+01 2.533454279312E+01 -4.095696525396E+00 1.253740534143E+01 2.112356289596E+01 1.301393352000E+01 1.115158223758E+01 -1.521064815085E+01 2.287587302309E+01 -1.775083720750E+00 -1.947042498931E+01 -1.726914723201E+02 1.637373699763E+02 -5.378822621861E+01 -2.206533982422E+02 -3.210027225410E+02 4.833577652497E+00 3.090969242855E+01 -2.493066776252E+01 -3.044689804820E+01 1.648457917283E+00 -1.319186759563E+01 -2.032960876832E+01 -1.478029564024E+01 -1.823808523181E+01 1.387912938890E+01 -2.239863296574E+01 2.232700801589E+01 8.410709670182E+00 1.291808002780E+01 1.030615344262E+01 -1.291161031396E+01 -5.107478880440E+00 1.327669236577E+01 2.753139129558E+01 4.515570677266E+02
 4.570099932298E+02 -1.860296258642E+02 -3.508627090445E+01 -1.137319110807E+01 5.669173186284E+00 -2.480058592947E+01 -3.025498442701E+01 -3.023882624025E+01 9.846291467938E+00 -3.879508605765E+01 -6.479805628217E+01 -2.507985220093E+01 7.364564517954E+01 1.795485523340E+01 -2.137273931680E+01 4.958442573943E+01 1.765250356414E+01 1.431154179091E+01 -2.351172720206E+01 3.472661410192E+01 3.519844152877E+00 7.398296347626E+01 1.252760863310E+02 -1.497020613738E+02 -8.719642823050E+01 -2.982971089848E+02 -4.076832372633E+02 3.270782256052E+01 6.116758898056E+01 -1.480947762868E+01 -5.155318699759E+01 -7.214753085368E+00 -3.642032578011E+01 -3.090406889175E+01 -1.289024076855E+01 -1.141099815363E+01 -4.743428034937E+01 8.093173355701E+01 1.158870642614E+01 5.206716218897E+00 3.611355792208E+01 2.404450345121E+01 -3.493858944264E+01 5.821115487809E+00 2.511119162604E+01 -2.448919134511E+02 1.766220516761E+02 7.119581838346E+02
 -1.184660800300E+00 -7.900258724828E+01 4.949742463508E+00 -6.402048143568E+00 -2.621124267310E+00 1.881876390650E+01 1.826047606112E+01 1.795971021317E+01 -1.680651676547E+01 -1.375203096851E+00 2.240022853675E+01 -1.700672305481E+01 -2.571356773023E+01 4.717199834253E+00 -1.600389897463E+01 -1.906094630369E+01 -1.331475256262E+01 -1.266457623912E+01 1.913021270519E+01 -2.283527182838E+01 2.220840206573E+00 -1.781695758397E+02 4.332845107155E+01 -1.533621808057E+02 -1.160777290078E+01 -5.442465763560E+00 9.591318582955E-01 -5.954668039154E+00 -2.224825103245E+01 1.003776579562E+01 2.294129436682E+01 -9.373937280435E+00 1.753056665735E+01 -3.189647016025E+02 -1.401231687410E-01 3.501394075000E+02 -1.516460556281E+01 2.228700587771E+01 -2.391477678624E+01 -1.141447852532E+01 -1.040944103559E+01 -8.927641248488E+00 1.424751706858E+01 6.414560863890E+00 -9.109277576603E+00 -9.224891786905E+01 -8.252962087754E+01 -1.174552538940E+01 5.940208965610E+02
 -1.485803509428E+02 -9.979953550545E+02 -1.579919053782E+02 1.823126824633E+00 2.672207423374E+00 -1.395818707215E+01 -9.043084674547E+00 -1.336064799765E+01 -1.026494358412E+00 -2.199175761879E+01 -3.243896773021E+01 -1.069262396382E+01 3.025124014372E+01 7.380532455991E+00 -1.210585340327E+01 1.508993348164E+01 5.822525221329E+00 -1.666519398227E+00 -9.591560653154E+00 9.386921635131E+00 5.206850428445E+00 2.344942863562E+00 -6.842464442176E+00 6.311796386494E+01 2.273560506807E+01 3.323188537878E+01 -3.133082814342E+01 2.171298913027E+01 3.580016628891E+01 -3.568366235630E+01 -1.602343864930E+01 -1.090253543812E-01 -5.195057688950E+00 -1.257783351569E+01 4.702010653720E+00 6.654400329054E+01 -3.443384406941E+01 5.766994193083E+01 -2.561445774565E+00 -1.977535827122E+00 1.463597641954E+01 1.325642515513E+01 -1.311375446271E+01 7.353839834857E+00 1.177404422048E+01 -6.736846166767E+01 -5.481417804207E+01 -4.809258244323E+01 1.507978049115E+02 1.044218570467E+03
 3.167561840534E+01 -4.747182040419E+02 -2.530799968863E+01 1.039465956509E+01 4.608951909703E+00 -2.248268427218E+01 -2.502895428833E+01 -3.333125153664E+01 1.318029830670E+01 -2.695345208304E+01 -4.903823816949E+01 -3.351677952499E+01 5.701780108256E+01 9.919472387952E+00 -8.449866034260E+00 3.141779485256E+01 1.745286239780E+01 8.974120089886E+00 -2.249467635899E+01 2.869984091730E+01 2.734439886607E+00 -1.536683916456E+02 -3.223161505469E+01 -1.572979775230E+02 2.192869012500E+01 2.763160652609E+01 -1.378240324683E+01 1.770947497368E+01 3.850264692314E+01 -3.333301637692E+01 -4.702390425080E+01 -4.246351904874E+00 -1.225432845473E+01 3.051652853836E+02 8.039813341475E+00 -3.119676069036E+02 -3.968277088563E+01 6.614781628580E+01 1.076145975410E+01 6.540542890338E+00 2.928945809081E+01 1.871147834701E+01 -2.985397857143E+01 2.784919745959E+00 1.708817955458E+01 8.101256776955E+01 5.441150468229E+00 -3.637038616227E+01 -1.501132618583E+02 2.304644886051E+02 6.227187607685E+02
 -6.633120255129E+02 9.449053364767E+02 -7.197723898360E+01 2.660733187730E+00 8.925572506357E-01 -1.304456296721E+01 -1.044167289719E+01 -1.556215925995E+01 6.759220907472E+00 -2.242293879595E+01 -3.755528399762E+01 -1.071661896309E+01 3.253058791829E+01 1.098031992975E+01 -1.242906128452E+01 1.495333429667E+01 9.373645726543E+00 6.195451045943E+00 -1.286520140469E+01 1.653744798270E+01 1.264781214086E+01 2.061388092427E+01 -2.731023264241E+01 -2.408570848680E+01 1.883995302778E+01 7.138525984272E+00 -3.723851866675E+01 -1.073283777116E+02 -1.247616716398E+02 -1.177846985933E+02 -1.789859361731E+02 -8.906885277809E+01 2.452971788945E+02 -2.939984814072E+01 -7.358971618073E+00 -1.776881746352E+01 -3.442280222395E+01 5.596249109322E+01 -8.748195853982E-02 5.455881770092E+00 1.307456420333E+01 7.559047269459E+00 -1.548489612297E+01 5.203432355480E-01 3.831584760630E+00 -3.900341600971E+01 3.288965562327E+01 -1.457205811173E+02 -5.710058856865E-01 4.425242547047E+01 -1.258226539724E+02 9.771273853020E+02
 9.803688182885E+02 -1.334499246881E+03 9.284062556425E+01 1.921305874207E+00 1.453491143396E+00 1.418359968933E+01 1.317985573500E+01 1.467570075855E+01 -6.038120440098E+00 2.952134315506E+01 3.671405617658E+01 2.243370186555E+01 -4.179924940907E+01 -8.264923181228E+00 7.634458439784E+00 -1.908218499405E+01 -5.826571242619E+00 -6.932866389481E+00 1.144913464863E+01 -1.962990361758E+01 -2.055911780228E+01 -2.801020393546E+01 2.492626345929E+01 4.219970685782E+01 -1.496329724473E+01 -1.789280383207E+01 2.825777945362E+01 -1.247798442660E+02 -1.162733237160E+02 -2.557533119297E+02 -9.749582786458E+01 -2.722904857557E+01 2.093850286762E+01 2.997623134590E+01 1.555066962630E+01 5.141959641999E+01 4.190813255348E+01 -6.783817059325E+01 4.219437885291E+00 -4.016463857710E+00 -1.568431548589E+01 -4.775231510418E+00 1.650258557935E+01 -1.562592711191E+00 -6.215748451695E+00 3.454945209293E+01 -3.276757565964E+01 1.796422851777E+02 1.139844846162E-01 -5.370119846990E+01 1.988885938608E+02 -7.742719132002E+02 1.536162343561E+03
 -4.079755144820E+02 5.544665729096E+02 1.516098174601E+01 4.865001046655E-01 -2.596233605634E+00 -3.193426316942E+01 -3.655958106897E+01 -2.985198686948E+01 1.142626928891E+01 -3.995602250266E+01 -7.216929929178E+01 -2.508808829836E+01 7.472390076440E+01 1.157387908881E+01 -1.270487812541E+01 3.824040056951E+01 2.473063940212E+01 1.140886645176E+01 -2.558036537638E+01 3.303723593242E+01 -7.652208298035E+00 3.161487375503E+01 -4.032479225824E+01 -7.158090075189E+00 3.305383467216E+01 3.084409315194E+01 -1.245815330217E+01 -1.499418978353E+02 -1.577625489839E+02 -2.625099469817E+02 1.676896372341E+02 7.856344191753E+01 -2.269246986058E+02 -5.045861391536E+01 -2.309372237396E+01 -1.626880459344E+01 -5.589211463036E+01 9.168679520693E+01 8.166388427393E+00 1.059590087261E+01 3.581008098561E+01 2.674541197333E+01 -3.695861655819E+01 2.498222368721E+00 2.609249144398E+01 1.376306292201E+02 -1.126887809325E+01 -1.295916912721E+02 -4.351922242438E+00 -1.284859273950E+02 -1.137849765856E+02 2.399038918763E+02 -2.949711923300E+02 6.520096288574E+02