#BIOSYM hessian 1
@Type: Hessian Update
@Units
 distance: 	A
 energy: 	Kcal/Mol
#header
@natom 19

#label
L1      L2      L3      L4      L5      L6      L7      L8      L9      L10     L11     L12     L13     L14     L15     L16     L17     L18     L19

#element
Li Li Li Li Li Li Li Li Li Li Li Li Li Li Li Li Li Li Li

#matrix
57
 3.099157196791E+01
 -1.939683207062E-01 3.145758039657E+01
 7.308417103839E-01 7.413916933935E+00 3.043404590681E+01
 5.458517116154E-01 2.779514579372E-02 8.659754523377E-01 3.125627510095E+01
 3.886616495362E-01 2.236525509129E+00 6.400763614354E-01 5.863359201335E+00 1.728077437862E+01
 -1.068951108598E+00 1.134262234789E+00 -1.233226915531E+00 -1.189886729402E+01 -8.492435571562E+00 1.629879608303E+01
 -9.124988846576E-01 9.425317703626E-02 -4.789845653617E-01 -1.701008869088E+00 -5.222419099528E-01 -2.831867165673E-01 2.198813430632E+01
 1.348354656500E-01 -6.528581075105E-01 -1.046477732957E+00 1.628271399423E+00 -3.627340519782E+00 3.276470558683E+00 -2.216406580209E+00 2.526186548589E+01
 6.684851561372E-01 -7.658691514493E-01 -1.665919988004E+00 8.602974244044E-02 3.886031609506E+00 -7.535273877055E+00 2.402654385671E+00 9.276388350220E-01 3.483920178923E+01
 8.644534680603E-01 -2.000139078502E+00 2.703102351931E-01 9.236068094407E-01 5.092668938076E-01 1.705448473571E-01 -9.175866068715E+00 -2.370303296157E+00 1.683894202225E-01 4.685485334562E+01
 -2.396971320843E+00 -1.271710830750E+00 1.097864089652E+00 -2.735532305447E+00 -1.198835934719E-01 1.795336837653E+00 1.272908912788E+00 -1.388785629696E+00 -2.546177261150E+00 -5.172507919956E+00 4.625457767451E+01
 2.600358105364E+00 2.372343475380E+00 1.655603371193E+00 -1.787935680731E-01 -4.538456644896E+00 -2.979513077491E+00 2.311877338051E+00 -6.564615846744E-01 2.984924149665E-01 -2.502609278763E+00 -6.534882569091E+00 7.677034666635E+01
 2.177885350158E-01 1.274348125395E+00 -3.818248963602E-01 1.336387885041E-01 2.956784950271E-01 -5.064388451105E-02 4.281767874438E-01 -1.362897590641E+00 -6.098787200691E-03 9.846434823457E-01 1.240066905653E+00 1.014995398490E+00 2.118873050213E+01
 -1.347352842616E+00 2.312961001833E+00 -8.101798062611E-01 3.838296525440E-01 -8.684995130070E-01 3.347116129812E-01 -2.293800137889E-01 9.382605059061E-01 -9.143367861077E-01 1.017922666048E+00 3.388627418070E+00 -1.196523244340E+00 7.269525558038E+00 2.650766947551E+01
 -7.282740457261E-01 4.011569982367E-01 4.022753324073E-01 1.834573989061E-01 -3.098430666198E-01 -1.929170936375E-01 1.514084374246E+00 -1.410978192319E-01 -2.114557731762E-01 8.618996020985E-01 1.666238624019E-01 4.521029615179E-01 -6.247471520283E+00 -7.439614503946E+00 2.761447386903E+01
 -2.649784307241E+00 -2.868938965293E+00 -6.031817660909E+00 4.291939203874E-01 1.076768332690E+00 -3.373835477262E-01 1.857214584415E-01 1.572704982245E+00 2.255193063076E-01 -3.488863229488E+00 1.573236341406E+00 -1.416139622112E+00 1.712831079173E+00 -5.562541366550E-01 4.189145779188E-02 3.142105308661E+01
 -1.831686043439E+00 -4.642884712262E+00 -6.757149247853E+00 1.549811678805E+00 -2.330177844843E-01 1.156425136910E+00 -7.276985750833E-01 1.023106276998E+00 2.884143839990E-01 5.378405024847E+00 -1.057719754329E+01 3.503990269537E+00 5.745633420919E-01 -1.085607965271E+00 -6.357574324410E-01 -4.955369204492E-01 2.610464158582E+01
 -3.433964527572E+00 -7.283835405231E+00 -1.466941935795E+01 1.258331495547E+00 -7.993387300027E-01 -9.389625558780E-01 4.508332738775E-01 5.955376185974E-01 1.786920441533E+00 -6.793614852968E-01 -1.349196378325E+00 -1.098956522025E+00 2.404626823514E-01 -3.649685136220E-01 1.253504813892E+00 3.835486149836E+00 2.352256197256E+00 3.204345060022E+01
 -8.632543516064E-01 2.416193124511E-02 4.665910683181E-01 -9.532129933236E-01 2.722868914932E-01 1.072727325919E-01 -5.565472125119E-01 7.182656486111E-01 1.620894835209E-01 -1.121021528297E+01 -1.434836324904E+00 -3.259856989391E+00 -1.195536959746E+00 4.177851159395E-01 3.713495310488E-01 -2.368523882470E+00 -3.974241084004E+00 1.332825785273E-01 2.404339074801E+01
 -5.671900206064E-01 -2.356790389921E+00 3.056369697927E+00 1.025230124802E+00 4.830743963978E-01 -5.367391955440E-01 3.764239477922E-01 -2.073518638384E+00 5.249307099241E-01 -8.619531337941E-01 -2.509643866417E-01 1.540612450382E+00 2.059188660307E+00 -3.729131909581E+00 -2.817968473050E+00 -1.490270727649E+00 -5.256695091075E+00 4.254842347499E-01 -8.405365967964E-01 1.873427951801E+01
 1.142948444519E+00 4.717855269526E+00 -5.367837118482E+00 -1.859784257495E-01 3.719232325177E-02 2.641220916900E-01 -4.267363345357E-02 1.491181140253E+00 8.240725980404E-01 -1.263320421513E+00 -1.478513855968E+00 2.887825097713E+00 1.670671686251E-01 -9.989936262948E-01 -8.899458157626E-01 1.509645856146E+00 -4.936504578125E-01 -1.584586079700E+00 -2.271987012371E+00 -1.030991063668E+00 2.311156716024E+01
 -8.601462736323E-01 2.557072744657E-01 1.214924298116E-01 -2.279612089451E+00 -1.086292212851E+00 2.545533468636E-01 -2.729902599503E-01 -4.722078215262E-01 4.882544878494E-01 -4.995666279132E+00 8.992481446028E+00 8.533272044393E+00 1.525263985646E-01 -4.739292177252E-01 3.709910117011E-01 -1.317552885331E+00 3.750396883996E-02 -2.527662097640E+00 -3.192896365386E-01 -2.076274302287E+00 -9.513007220845E-01 1.459651972651E+01
 8.763315576984E-01 -1.415434257220E+00 -4.136128877264E-01 8.648497570364E-01 8.638961101575E-01 6.372753935713E-01 5.946704618107E-01 6.402232572977E-01 -4.702605221433E-01 5.289679404483E+00 -6.310030077913E+00 -7.888240160964E+00 5.379752048142E-01 1.771730158581E-01 -4.983722479040E-01 6.188487978137E-01 -1.737983124666E+00 5.641037601937E+00 -5.625823848482E-03 -4.163672040752E-01 -2.043397107363E+00 -7.906868434140E+00 2.090235663653E+01
 -3.905038473648E-01 -2.020133372671E+00 -8.458061655549E-01 2.009897863053E+00 2.055350719288E+00 -1.647964482512E-01 -4.706021687440E-01 2.032115551332E-01 5.621824253154E-01 9.232506555399E+00 -1.231400244635E+01 -1.789057366652E+01 9.746528807993E-01 6.946069398751E-01 -3.343623268741E-01 -1.874068271155E-01 3.643000101132E+00 -5.035135413185E+00 2.432970704046E-02 -1.911675842540E-01 -3.080549806703E+00 -8.468235797674E+00 8.983114779779E+00 2.932118537661E+01
 -1.160626399440E+01 2.080572406632E+00 -4.764428513938E+00 -2.435819456295E+01 -7.601355533544E+00 1.163302973836E+01 -6.826355304125E+00 3.398740896115E-02 -5.640971126902E+00 3.493483868553E-01 -1.519857928715E+00 3.474981925524E+00 -1.288844390679E+00 6.864156615489E-01 -3.509055407386E-01 -6.964135503626E+00 5.179984282179E+00 3.188186950587E+00 3.053217098792E+00 -5.797089423518E-01 -3.088866035909E-01 8.196156310160E-01 -2.179723908991E+00 -1.644549922572E+00 5.959141335751E+01
 4.667616766846E-01 -5.752894642158E-01 5.507272175900E-01 -6.211806205786E+00 -3.412060469011E+00 1.888464664040E+00 3.991312217617E+00 -9.549613513572E-01 -1.263030736986E+00 -1.398111317917E+00 -2.673894309760E+00 7.911319388701E+00 1.058687083417E-01 -2.423068274689E+00 1.195774564547E+00 2.981565008813E+00 -2.402013530456E+00 3.378153965793E-03 1.008104532485E+00 8.956727566131E-01 7.561247094385E-01 2.901137976482E-01 1.163555730884E+00 -1.023776763785E+00 6.240117873617E+00 6.333780054182E+01
 -2.860872929152E+00 -2.811869280591E+00 -1.837182734157E+00 1.117156650311E+01 5.281579068234E+00 -4.359830769159E+00 -4.576800125741E+00 2.656980542268E+00 -5.423237530682E+00 5.740532641849E+00 1.090888982507E+01 -1.739376106631E+01 1.761522721656E-01 9.879050418037E-01 -1.877193648578E+00 1.624317497741E+00 -3.715742188715E+00 -1.704210386020E+00 -1.168932867054E+00 -1.803499810903E+00 -3.080547566370E+00 2.172048764255E+00 1.650862431387E+00 2.425300462949E-01 -4.869736627322E+00 1.156993320586E+00 6.410662873815E+01
 -4.286156830385E-01 3.183935282665E-01 1.511257883400E+00 3.403212407838E-01 -9.405029507736E-01 1.522956355682E+00 -2.856183338256E+00 -2.789960668104E+00 3.041239565618E-01 -8.316323189549E-01 6.212510495365E+00 3.755367039676E+00 -7.361231369468E+00 5.949391958191E-01 -1.039389194161E+00 -3.133273348309E+00 -2.771655053100E-01 -9.834486999292E-01 7.094563920992E-01 4.232999268526E-01 -1.655835778807E+00 8.255082250480E-01 -1.028971607373E+00 -1.486107882393E+00 1.716875533017E+00 -1.640175648166E+00 5.339518521180E-01 2.385272154453E+01
 1.056758827865E+00 4.503208054749E-01 4.083123108099E-01 -5.998728763620E-01 -1.530810066671E-01 -1.910984447542E-01 -4.599872186602E+00 -7.104380517390E+00 2.052788046192E+00 5.089288509179E+00 -1.111536246963E+01 -6.452145237457E+00 -6.049390161157E-01 -7.985179745198E-01 5.916290479615E-01 -4.824720597003E-01 -9.963171492349E-01 7.865905785475E-01 1.265188770562E+00 5.629688351684E-01 -7.283508795881E-01 -4.592565881152E-01 -4.818566062315E-02 1.852275431232E-01 3.018566847012E-01 -5.405380515669E-01 -7.003347477618E-01 -3.210505825652E+00 2.707291287147E+01
 5.733905323333E-01 -6.758400917465E-01 -2.347799259368E+00 -2.038085077036E+00 -6.297682158350E-01 7.081190389168E-01 3.330208416490E-01 6.686951007187E-01 -1.018948205698E+00 1.162184409257E+00 -3.732269947544E-02 -2.380139893648E+00 -9.808960249602E-01 -3.798242783105E-01 -9.422554145398E-01 6.064531623890E-01 -2.390530532078E-01 1.507426153354E+00 -1.092949102709E+00 4.998432484685E-02 1.263274403221E+00 1.157538704487E-01 1.471424656566E-01 -3.631508274070E-02 1.909570195728E+00 -9.262342880179E-01 1.487840692396E-01 -1.506009345539E+00 -1.471098799286E+00 1.710840097543E+01
 -2.195946575655E+00 4.404526064370E+00 -2.186688042929E+00 1.350518569220E+00 8.629865883544E-01 -2.288630237083E+00 3.210938010758E+00 2.420872336228E-01 1.133982500240E+00 -2.831880979174E+00 -3.377949286396E+00 -1.716454778207E+00 -5.551551356117E+00 -1.008093980397E+01 3.017362373476E+00 1.680499084600E+00 9.520789251363E-01 2.257921532725E-01 -6.006480770580E+00 9.114797321699E-01 5.728833526668E+00 -1.808641910800E+00 1.825771400103E-01 3.452860197347E-01 -5.804930167092E+00 -1.193667153478E+01 -4.560299645005E+00 -5.339531522001E+00 3.646659711517E+00 -4.476888392988E+00 5.390194260167E+01
 5.217499204838E+00 -9.051673755700E+00 2.769736301203E+00 4.644609680210E-01 6.373676458611E-01 8.089669317462E-01 1.317159814671E+00 -1.283948347921E-01 1.170360568055E+00 8.623710296682E-02 -1.899762620175E+00 -4.673384410653E+00 -1.229152026564E+01 -1.678119655654E+01 5.077067209534E+00 -7.355752196195E-01 1.962368751347E+00 -2.470765809029E+00 2.704404653681E+00 -2.028530977096E+00 -2.586096886580E+00 -9.109003369415E-01 -6.689594837183E-01 1.928033441990E+00 -1.199614072107E+01 -1.409708488412E+01 -7.258877806529E+00 2.302363411649E+00 -2.896963296822E+00 2.706819729081E+00 1.543015713176E+01 6.472554052685E+01
 -9.146648458633E-02 4.769524714089E-01 5.362039787996E-01 -1.552560637888E-01 3.995434170186E+00 1.020953692156E+00 5.603950456847E-01 -8.544921362272E-01 1.852088564555E-01 -3.517925594187E+00 -6.027047328281E+00 -1.316150529699E+01 6.160589651880E+00 9.598245207383E+00 -4.441884301159E+00 -2.004317481060E+00 1.212548819870E+00 -1.002240676607E+00 6.676621490273E+00 -2.449999074922E+00 -7.901878322308E+00 -8.942975871199E-01 -1.623238971430E-01 -1.013468366970E-01 -2.739325355276E-01 -6.911338817183E+00 -1.615606624487E-01 -5.467320526071E+00 5.625225619860E+00 -2.384825131620E+00 6.996156018371E+00 8.532930977978E+00 4.992307030588E+01
 -1.566125094976E+00 -2.993709160416E+00 -3.560704049843E-01 -4.450433082875E-01 -6.948714844662E-01 1.626545740248E-01 1.602139563571E+00 -2.293622150974E+00 4.918785436689E-01 1.142720925832E+00 1.232183799708E+00 2.693098530847E-01 -1.754403698519E+00 1.230831089378E+00 2.590376435434E-01 1.664920079994E-01 -1.552361972668E+00 1.198774924038E+00 -4.381379659418E-01 4.408391718811E-01 -3.178616337291E-01 1.638544929567E+00 -4.565980176534E-01 5.529300593576E-03 -3.014708685067E-01 2.223769188142E+00 -3.169971239674E-01 2.645647816426E-01 4.520020705433E-01 4.914618409701E-01 -2.050163090941E+01 -3.832612573526E+00 -1.580743096001E+01 2.986500921156E+01
 -3.506986522037E+00 -9.648205346139E+00 -2.424569639676E+00 -1.369087994173E+00 -1.388494962662E+00 -4.697122287159E-02 7.443148508210E-01 -8.752404870154E-01 -5.183870736942E-02 7.995845779462E-01 1.003263305077E-01 -1.522733852339E+00 3.236315290697E+00 -3.552101837803E+00 3.746774272680E+00 -6.731003076357E-01 4.653896734929E-01 9.236817163973E-01 -1.003128819903E+00 -1.274442782584E+00 -6.098431556484E-01 5.532646678407E-01 3.032285059286E-01 1.383602801438E+00 -1.523830837299E-01 9.718200673633E-05 2.021248058832E+00 -1.454399296678E-01 -2.445733031650E-01 7.182532108761E-01 -4.300289858864E+00 -8.018060397884E-01 -3.065109661248E+00 2.044351556595E+00 1.968973723335E+01
 3.011559116312E-01 -1.548544138194E+00 -9.882399385831E-02 1.140369833740E+00 -9.061513611712E-01 2.562237026151E-01 -4.787676006666E-01 1.472825397489E-02 -5.555550839718E-01 -8.270787960652E-01 5.919546489856E-01 -2.876426316128E+00 -1.981933764314E+00 3.144054857499E+00 -7.534666552609E+00 -6.754746617542E-01 -4.833022672003E-01 -7.729262866793E-01 2.920664185070E-01 4.125507978357E-01 -2.474845721526E+00 -1.808949145416E-02 3.536489739797E-01 7.018934429465E-01 -4.076337451988E-03 6.521436172282E-01 3.224524546316E+00 1.053923220476E+00 -3.717186429106E-01 -3.852858183327E-01 -1.462272904094E+01 -2.402348510957E+00 -9.766776270590E+00 1.551821866701E+01 1.532772055068E+00 2.335167528045E+01
 -5.733634345105E-01 -1.527771504699E+00 -4.672582140662E-01 3.061070470656E-01 1.592320037139E-01 1.199260922134E+00 -7.669325917692E-01 6.311059658842E-01 2.971484332352E+00 -1.278646393198E+01 2.884293744349E+00 -1.475149908627E+01 -5.954818356047E-01 2.434573521318E-01 -1.482739811409E+00 1.236604481947E+00 -1.723635813339E-01 -3.138012485097E-01 -1.722324235770E+00 5.553371576639E-01 -7.689580013107E-01 -6.459212769825E+00 1.396445933743E+00 7.681441559096E-01 7.796120370961E-01 -1.711582301930E+00 -2.896134026122E-01 -1.384385958979E+00 8.037443466433E-01 1.293559965980E+00 1.255845868641E+00 -2.123174295319E-01 1.382004233584E+00 -1.977971502127E+00 5.297044123254E-01 -1.182402702949E+00 2.867030463222E+01
 -5.935472982924E-01 1.224509994986E+00 3.126378949094E-01 -9.746529573024E-01 -4.970486269240E-01 -3.045722768484E-02 -1.199486040413E+00 -1.774368915846E+00 2.831132057690E+00 3.861775422243E+00 -1.349037998515E+00 4.130853334519E+00 6.418240615570E-01 -6.123581663384E-01 -3.269387838042E-01 -4.624079966515E-01 5.242043157924E-01 -1.212767737156E+00 -3.603760073634E-01 -5.231586809929E-01 1.154378973397E+00 2.824516237368E+00 -3.450554220223E+00 7.712522527398E-01 1.627544138784E-01 -2.645504405892E-01 -5.292621295677E-01 6.150178709356E-01 -1.252472534937E+00 -8.953935732380E-01 -8.067251469247E-01 -3.404962748392E-01 -1.779032442959E+00 2.617070253007E-01 6.679023344060E-01 -2.963898409127E-01 -1.823103317996E+00 9.248286555533E+00
 -3.939975327795E-01 -3.825983609008E-01 8.558478563810E-01 -1.134862461067E+00 -8.020952270770E-01 3.456802144587E-01 1.788865493093E+00 2.912986516680E+00 -9.029593271142E+00 -1.309961354012E+01 6.849970069575E+00 -1.635544738495E+01 -5.262936983411E-01 1.906963320367E-01 -7.572595873245E-01 5.306870599337E-01 -1.920563081771E+00 -8.295510214366E-01 4.740428666878E-01 -2.380699177720E-01 -1.058086280223E+00 1.466533408126E+00 -4.203095004231E-01 -1.145868808712E+00 1.120180767863E+00 -5.823582857819E-02 3.054635980198E+00 -6.798695138374E-01 -5.021934896691E-01 -1.816049179719E+00 1.758497774769E-01 -6.103174905010E-03 1.465820441665E+00 -1.896008776790E-01 5.281786216572E-01 -3.295729756917E-01 1.106885138593E+01 -3.908670406694E+00 2.722226882075E+01
 1.083174099144E+00 5.963632643779E-01 -5.750312956983E-01 1.374705289581E-01 -2.915435523179E-01 3.432002687893E-01 8.116160119196E-01 2.706811108288E-01 2.143034359772E-01 -2.480475214489E+00 -6.330122788240E+00 6.252162562673E+00 -1.386457549021E+00 -5.508728055836E-01 -1.776502036277E+00 -2.013196022784E-01 2.082804745433E-01 6.623939184939E-01 -1.442339398835E+00 3.324671445198E+00 -2.297559750171E+00 -7.918268419615E-01 2.079098564828E+00 -3.324157343931E-02 -1.409736761093E+00 1.714113299519E-01 9.293650667276E-01 -3.991223057281E+00 -3.247355125301E-01 3.113891295531E+00 6.107719292639E-01 1.065588338013E+00 -1.067189414020E-01 2.044795817756E-01 -4.990128588838E-01 -1.190870224675E+00 -5.997734456999E+00 -3.724689319858E+00 -1.054224636429E+00 1.807768152684E+01
 3.274222076912E-01 6.233032223688E-01 1.199520309765E+00 1.922008764069E+00 1.890693459777E-01 -1.169922559573E+00 -8.707962956222E-03 2.295044785574E+00 1.635832381255E+00 -4.982030779571E+00 -1.251166500699E+01 1.058521970976E+01 -9.594720425331E-01 -1.452065320997E+00 -2.429068803828E+00 -2.024934839021E-01 5.009589828444E-01 3.485333895279E-01 1.168746506075E+00 -4.341422262075E-01 3.580054697491E+00 -1.491940213290E+00 -6.580987781863E+00 -9.940353750862E-01 1.659428870163E-01 5.359743437877E-02 -2.094042062006E+00 1.041538784773E+00 -1.366529722985E+00 -1.805902922795E+00 2.034072126709E+00 6.119315930560E-01 -2.069681267227E+00 -1.178744317082E+00 -8.917681599811E-01 -1.208637616957E+00 -2.825642786716E+00 -7.357729962321E-01 -2.090943632557E+00 7.108209683892E+00 2.566469743775E+01
 -2.404183991470E-01 -1.143605269131E+00 -1.655673803686E+00 -1.111384170921E+00 1.299784504124E+00 -3.131572032160E-02 -9.018885563989E-01 -1.326255781969E+00 -1.020557676252E-01 5.078731361527E+00 1.111872087085E+01 -9.279625220684E+00 -2.729565717643E+00 -1.810498975795E+00 -6.673442329385E+00 -4.432209573956E-02 3.389716241379E-02 9.468194167778E-01 -1.161417573458E+00 1.468376494033E+00 -3.847067274422E+00 -4.010337081809E-01 -3.685528035690E+00 -6.126620164602E-01 3.813944368674E-01 1.669836635801E-01 -7.478795120637E-01 3.137719573949E+00 5.478357603322E-02 -2.988024052732E+00 -1.196055274480E+00 -4.305723591054E-01 3.950128755924E+00 -1.371819934966E-01 3.550106304771E-01 5.316309906435E-01 -1.065995172108E+00 -1.544547940768E+00 1.816330976667E-01 -2.679363886243E+00 -5.246725404912E+00 2.300165366112E+01
 1.529856506635E+00 8.029433398108E-01 2.490581251517E-01 -6.287849026988E-01 4.684786127248E-02 3.967882667900E-01 -2.336612418567E+00 5.262694378335E+00 2.131743459373E+00 -4.408065050850E+00 -2.889858194898E+00 -2.368422281960E+00 -1.110883766290E+00 -3.471761231491E-02 -3.468538408188E-02 -1.389119587886E+01 -1.562261913340E+00 -3.228579898217E+00 -4.988383864151E-01 -1.260792120277E+00 3.484234415896E-01 3.788479661748E-01 -3.401778312719E-01 -5.220425174815E-02 -2.497591228796E+00 -4.721054840156E+00 -4.576795184473E+00 6.563721514979E-01 -7.071651565842E-01 -9.806656762239E-01 1.271767281827E+00 1.748204629089E+00 2.123466168964E+00 -2.520655181663E+00 -1.819747221357E+00 -4.786517165375E-01 1.182589301086E-01 1.053092455907E+00 5.000890031912E-01 -1.683672877504E+00 -3.929801785555E-01 3.682724645075E-01 2.565567264204E+01
 1.139168750363E+00 -2.943673293867E-01 -1.195373463067E+00 -4.287853537610E-02 -1.142074170014E+00 1.085791555444E-01 3.584932636783E+00 -9.870561963256E+00 -3.301203295865E+00 -4.703927963057E+00 -4.744917437571E+00 6.169667451723E-02 1.976603139454E-02 -1.706003055801E+00 -2.354199817239E-01 2.289941141550E+00 -7.138253341187E-01 2.829551341572E-01 -5.826876350068E-01 -8.737656265831E-02 1.492307287619E-01 -9.061441240168E-03 -2.367192747786E-01 2.267357377045E-01 -3.896838474919E+00 -4.564918733214E+00 -8.318702588354E+00 -7.948282851771E-01 2.496519791109E-02 -1.922119265595E-01 3.741130798400E-01 1.138710126830E+00 -7.040779747218E-01 1.935982576444E+00 -6.182424598912E-02 6.314023772009E-01 1.051327444827E+00 -1.958063851163E-01 -1.337718318157E+00 -1.592102654168E+00 -2.599749003315E+00 4.821122162484E-01 4.099995431324E+00 2.438953006828E+01
 -1.365442396157E-02 3.989825255291E-01 -8.932681173226E-02 -4.500209431864E-01 2.592307331364E-01 -1.134188275798E-01 1.559439435756E+00 -3.811300493443E+00 -1.392236083021E+00 -6.882656764606E-01 -1.103646071716E+00 4.285985543008E-01 -2.660129087189E-01 5.948545876024E-01 1.676229966333E+00 -8.651529164029E-01 -4.281518077908E-01 -1.814951047629E+00 -3.636671023934E-01 3.038202189311E-02 2.032694361334E+00 -7.535490844340E-01 -3.128546545889E-01 3.232430500707E-01 -4.307261430477E+00 -4.265594263999E+00 -1.094680191880E+01 -2.780868012563E-01 7.024834887310E-01 1.091920014983E+00 1.224564370174E+00 1.096015158859E+00 -1.863657117755E+00 3.150162339148E-01 -1.265883018754E+00 -1.509009102014E+00 8.851379123452E-01 1.035669195553E-01 -5.370067263543E-01 -2.825494544764E-01 6.907582210364E-01 -1.321393380589E+00 6.553084649496E+00 1.053769701900E+01 1.572888205794E+01
 -4.220908463432E+00 -3.700927828534E+00 1.335066197225E+00 -4.170611066178E+00 2.919295169403E+00 -3.613943806483E-01 -4.316599870125E-01 1.039169199509E+00 -4.242985482004E-01 1.327450649589E+00 3.997042105642E+00 -2.272452870030E+00 -2.158814642020E-01 -5.140880248498E-01 -1.569196309181E-01 -3.066232932224E+00 -2.979908433781E+00 1.439425461876E+00 1.248928687362E+00 -1.067444579276E+00 -7.932940654252E-01 1.011252550931E+00 1.599525491108E-01 -2.110631961153E-01 -2.110734211790E+00 3.946587179407E+00 3.042252547815E+00 -2.767510591146E-01 4.262144782974E-01 1.270679696331E-01 -1.906837821179E+00 -8.468520716887E-01 2.586544937385E-01 1.502770484537E+00 5.676178042487E-01 7.690378822603E-01 -2.655163717388E-01 -1.290323861594E-02 3.607905041669E-01 -1.062217621109E+00 -2.199246695666E+00 1.338545778841E+00 -6.123565102753E-01 -1.308445039017E+00 -4.226223055188E-01 1.387532213343E+01
 -1.567299937228E+00 -3.158996316611E+00 1.193801281962E+00 9.076744782207E-01 -2.435802304746E+00 -1.310304985486E+00 -7.976930615971E-01 -1.054428214633E+00 1.341929193318E+00 -4.288669289987E-01 2.482713330820E+00 1.078159581072E+00 -9.475826739819E-01 -9.928002247163E-01 5.843596620332E-02 -1.093474480679E+00 -2.507415015834E+00 -3.448971675973E-01 -7.602582518313E-01 -1.507710908040E+00 -7.480699365186E-01 1.103574858715E-01 -1.081180870423E+00 -4.472509601366E-02 7.143007019472E+00 -2.506034487532E+01 9.166600028736E+00 5.260337390077E-01 1.596987003387E+00 -5.015910333121E-01 -9.477703161946E-01 -3.855161285614E+00 3.442912322268E+00 -3.872133216011E-01 6.349722603945E-01 -1.204922117962E-01 1.744685316879E+00 3.790726611704E-01 8.709374607185E-01 -7.920989745055E-01 -6.518811813984E-01 -1.781159003096E+00 -6.595855733109E-01 3.012693657074E-01 -2.236493502394E+00 -2.900501467858E+00 3.624165181318E+01
 6.549045236147E-01 4.931588320261E-01 -3.976650380145E-01 -3.582115684692E-01 -1.061666749879E+00 -8.930473753286E-02 -5.921433181591E-01 7.319528528032E-01 2.292832310177E-01 -1.375448654859E-01 1.724055703632E-01 -9.889773067541E-01 -1.444161275568E-01 -8.723662157030E-02 -8.469501028540E-01 2.740652706535E+00 3.466636706761E+00 -5.490424348980E+00 1.064485038851E-01 1.000876500190E+00 -6.053911779115E-02 4.827301561187E-02 2.420259607929E-01 -1.137105832563E-01 -1.189923864452E+00 7.604253890891E+00 -8.213395959853E+00 5.575841420247E-01 -1.361706694783E+00 -1.001054659215E+00 5.126433541653E-01 1.449437269681E+00 -1.967341388989E-01 -7.613462525752E-01 -1.324472976415E+00 2.241798660543E-01 6.013995487446E-01 1.118595775735E+00 -1.766969371528E-01 -4.165633706549E-01 1.607940360363E+00 3.673166139567E-01 2.330792551096E-01 1.543926650574E-01 -1.707796944407E-01 -3.188629155011E+00 -1.251745475237E+01 1.642226798770E+01
 -3.165044505634E-01 1.320095646220E+00 1.632362282187E+00 8.810054789085E-01 2.050167018961E-01 -2.999803594311E-02 -1.066756221802E+00 2.066464283559E+00 -6.505763096014E-01 1.300228633847E+00 -2.256905649081E+00 6.351159091445E-01 -2.728202490765E+00 1.309967945633E+00 2.958446090891E+00 1.200888052938E-01 8.659135810091E-01 -1.582871681883E-01 -1.133446818300E+00 9.038312340554E-01 1.601706904630E+00 -6.098380646805E-01 8.617903317262E-01 2.746413780766E-01 7.592463812150E-01 -1.481513666577E+00 -9.220552639120E-01 -1.917357391289E+00 -8.510036521320E-01 -9.228231393744E-01 1.704962686894E+00 3.329886013065E+00 2.675027412314E+00 -6.273735005428E+00 2.652389718240E+00 1.586075871176E+00 -1.731606172435E+00 -3.239256738314E-02 -3.947236073716E-01 1.378107061311E-01 5.847444892727E-01 2.551203363127E-01 7.231744899839E-02 -4.476197831162E-01 4.395478923243E-01 -1.039255989826E+00 -4.994881046561E-01 5.061921014599E-01 1.604204325706E+01
 -2.226877469749E+00 6.313965176645E-01 -2.089077678238E-01 -5.036846492186E-01 -1.447234662235E+00 -1.165826625900E+00 -4.461720801854E-02 8.548175924093E-01 5.628872193915E-02 -7.636946937033E-02 -2.575234475978E+00 2.030128874148E+00 -2.294199201124E-01 3.197169530292E-01 2.856703988122E+00 -5.871789038060E-01 3.194455586953E-01 1.769322657150E+00 4.818259009617E-01 -5.920884064204E-01 6.943211193511E-01 5.780473637535E-01 -3.642503293321E-01 -7.666849051415E-01 1.929042775427E+00 1.214849615560E+00 -1.168399705023E-02 -6.215544557335E-01 -1.087097392304E+00 -6.806058325707E-01 5.107202310356E+00 -1.394787761709E+01 -1.341001174772E+01 2.919361145941E+00 -3.359056701515E+00 -1.436698576101E+00 -7.462015148998E-01 5.837772358640E-01 -4.798676454946E-01 -7.588511807788E-01 6.347371569784E-01 -9.785267346252E-01 -4.473174604828E-01 -5.961898257023E-01 1.811248778272E-01 9.821657671525E-01 -8.493781532349E-02 -7.691750954823E-01 -2.825668689254E+00 2.282912188485E+01
 -7.054483229654E-01 1.078003743710E+00 -4.540189128371E-01 -2.071215338183E-01 -1.537247101246E-01 -3.843493663054E-01 -6.531774112267E-01 -3.412932278032E-01 -1.212804794244E+00 1.673615384537E-01 -6.329675241267E-02 -1.561981942027E-01 4.234643714210E+00 -1.854122644409E+00 -5.693671558059E+00 3.286354927814E-01 6.353745398661E-01 -7.161030314403E-01 8.420390122939E-01 -9.629926941774E-01 1.146027073879E-02 -4.061627577910E-02 -1.132755374468E+00 -3.329283515507E-01 1.521884446675E+00 1.962171777063E+00 1.909841087599E+00 4.589616771158E-02 -9.091756398116E-01 -2.649458048086E+00 3.168453520754E+00 -1.076363724891E+01 -7.562720245836E+00 1.911688491395E-01 3.479337465786E-01 -3.717660458424E-01 7.256569651375E-01 1.932569020354E-01 6.150132905657E-01 -1.323166260703E+00 -3.600450712675E-01 -1.101476274244E+00 -1.101901181194E+00 3.324823389570E-01 -1.522506745075E+00 5.195483375986E-01 7.608387848110E-02 1.595810609684E-01 -6.197712260877E+00 1.288140675600E+01 1.861842886398E+01
 -7.710468019927E+00 4.968443569408E+00 7.735256159065E+00 -6.080768467190E-01 1.307773945162E+00 -1.357498243926E+00 1.346137652626E+00 2.394855427964E-01 3.536803831886E-01 -2.936087445015E+00 3.389328974780E-01 2.967158580769E-01 1.818433588383E-01 -7.921427475792E-01 1.175718699563E+00 1.070883027893E+00 -5.104213049982E-01 -1.708470614451E+00 6.640693907594E-01 -6.477001561100E-02 2.095602524371E+00 -1.005406642040E+00 -1.969383314480E+00 -4.811274199498E-01 -8.915334265748E-01 -5.030305951881E-03 -4.527778874407E+00 -9.292668478046E-01 -8.783827249920E-01 -4.506558835947E-01 -8.238789415551E-02 -2.151256501466E+00 1.300070725124E+00 -1.121649550476E+00 4.496870280551E-01 -1.172395290735E+00 9.560060774431E-01 7.832781615895E-01 -5.774924201980E-01 -1.209599125663E+00 1.043478825810E+00 1.285046787986E+00 3.798951303614E-01 -7.191357426117E-01 -1.181075749273E+00 -6.382033243484E-01 7.558631156756E-02 1.778863300311E+00 3.795784037183E-01 4.655735248999E-01 3.700218577973E-01 1.924225567551E+01
 4.397975231984E+00 -4.850326297608E+00 -4.274527580021E+00 2.101397811645E-01 3.700225428970E-01 7.557086916397E-01 5.990039705957E-01 5.584624299847E-01 4.025670585078E-01 2.255048374211E-01 2.531594891293E+00 -4.072016474685E-01 -1.058149906403E+00 -6.462903249931E-01 -2.793013139084E-02 4.962685533001E-01 -1.143415229975E+00 6.370115859452E-01 3.433754470569E-01 -4.492798812900E-01 -1.535622103258E+00 1.162665740170E+00 -2.650547589363E-01 -1.597796051908E+00 -1.768808945506E+00 -2.127565136514E+00 -2.434754499701E+00 9.817458426666E-01 -5.698359197057E-02 7.545964700080E-01 -2.772580522535E+00 -2.364526156540E+00 4.727468540690E+00 2.779653142548E-01 -2.061937858593E-01 1.095666089319E+00 -5.506704422209E-01 -1.077352657392E+00 3.177753775742E-01 -6.709911310283E-02 -1.801895971996E+00 1.954304771843E+00 2.934876474180E-02 1.105399557584E+00 -1.124459263296E+00 1.013540961896E+00 2.414188901107E+00 -9.844151308490E-01 -1.449624014388E+00 -4.083874083348E-01 8.720644943213E-02 -7.309021612457E+00 1.352485892975E+01
 3.819802025221E+00 -2.281286605372E+00 -5.406657999524E+00 1.207663339263E+00 -1.098464161486E+00 -7.237245888142E-01 1.500333555321E+00 -4.923060992385E-02 2.077914620488E+00 3.371153533133E-01 -2.442276898258E+00 2.385634707484E+00 7.197900359037E-01 1.695440003605E-01 -1.131620214396E+00 5.043510662535E-01 -4.460322799034E-01 7.026807193188E-01 -1.790830248409E-01 1.443419931761E+00 7.619276091986E-01 -1.116311516335E+00 -3.664082264764E-01 -1.452285634298E+00 -2.682428014544E+00 -5.773049384039E+00 -1.608177788946E+01 -8.384086781998E-01 9.509350053578E-01 3.664135147139E-01 5.069744831284E+00 4.887596041103E+00 -8.832807044725E+00 -1.346035072047E-02 -1.674147449800E+00 -2.104464960247E+00 8.407319760334E-01 7.078113017109E-01 -2.484658702169E+00 -3.742808028553E-01 1.103468379588E+00 -8.240489307323E-01 -5.651875010449E-01 2.912213714903E-01 -6.050852936732E-01 -8.347031637886E-01 2.566286529212E+00 1.004516348078E-02 -1.431005693458E+00 6.797409980279E-01 5.893501781233E-01 -3.076348936032E-02 -2.962684625962E+00 3.880710653089E+01