#BIOSYM hessian 1
@Type: Hessian Update
@Units
 distance: 	A
 energy: 	Kcal/Mol
#header
@natom 19

#label
L1      L2      L3      L4      L5      L6      L7      L8      L9      L10     L11     L12     L13     L14     L15     L16     L17     L18     L19

#element
Li Li Li Li Li Li Li Li Li Li Li Li Li Li Li Li Li Li Li

#matrix
57
 1.278330978558E+01
 2.735198559870E-01 2.729917249758E+01
 5.585723093562E+00 5.425908051918E+00 1.744094947160E+01
 7.579069587201E-01 -1.637841623950E+00 -9.446632608963E-01 1.039425622290E+01
 -8.640917038115E-01 1.308677440397E+00 1.968983068609E+00 -3.477374865249E+00 2.394406780284E+01
 -4.607097566937E-01 1.762073277405E+00 7.455564366402E-01 -6.270556144957E+00 -4.527408528503E+00 3.004392830555E+01
 -4.934243841717E-01 -1.010386363146E-01 7.517854231798E-02 -1.490317355457E+00 1.973209894249E+00 -2.342994102246E+00 1.935913944302E+01
 4.367390956074E-01 4.916513176668E-01 -4.763408393958E-01 1.668154357134E+00 -3.051901157660E+00 5.913331990631E+00 -5.341385918139E+00 1.076339551325E+01
 -2.440410308651E-01 2.030231092298E-01 -8.929247527743E-02 -2.354817627581E+00 5.951553593981E+00 -7.980647545336E+00 7.970333011410E+00 -5.342059797073E+00 1.504780123153E+01
 -1.731478608050E+00 -1.214709106091E+00 -2.398585315887E-01 8.976658727313E-01 1.592907725161E+00 5.574863546692E-01 1.327417881322E+00 -8.174209994434E-01 -2.782814085906E-01 2.060276067990E+01
 -1.740723267009E+00 -3.432122477715E+00 7.415786551860E-01 -8.860009258582E-01 2.109657165170E-01 -4.104980993509E-02 -6.438367692207E-02 -1.883843110591E-01 4.530760950967E-01 -1.178115241893E+00 1.464056247497E+01
 -1.348535506318E-01 2.841700676059E+00 -2.195521053635E+00 -4.844651965740E-01 9.596881267523E-01 -1.483561188619E+00 7.465611301912E-01 -1.116599816889E+00 1.639580174041E+00 -1.407737728092E+00 -4.639557156934E+00 2.337522087704E+01
 -1.975796953415E+00 3.483975016919E-02 4.614675426162E-01 -1.945339779701E+00 1.359015792023E+00 -2.192796174249E+00 1.997148034990E+00 1.453315136354E+00 1.293448769607E-01 2.655464694386E-01 -4.567361220368E-01 1.501029171647E-01 2.497458220427E+01
 1.726016756650E-01 -8.639307117637E-01 2.221567747445E-02 3.732034304820E+00 -8.236123705837E+00 5.868103023724E+00 -4.483260433643E-01 -1.776706520884E-01 -2.067218883165E-01 -6.402923707765E-02 -2.178290954495E-01 -2.603803156223E-01 -1.119776713254E+00 2.148577165385E+01
 1.104131491415E+00 -4.874555133632E-01 -2.627165391445E+00 -2.158382606336E+00 5.638027891862E+00 -2.423141245770E+00 -5.266212082927E-01 8.592017279387E-01 -7.429670674203E-01 -9.178203520719E-02 -1.800509307700E-02 6.210293887381E-02 -1.017635337226E+00 -5.617988216555E+00 1.421245147103E+01
 -5.846423447778E-01 -7.031573531702E-02 -5.449078178197E-01 6.762739614446E-01 5.694700503219E-01 -3.064162735250E-01 -2.324669599775E+00 -3.904350129497E-01 -1.257844623404E+00 -3.224748915989E-01 5.782009260504E-01 8.499837517196E-01 1.081994099216E-01 1.398690437926E+00 -5.851975021610E-01 2.126825215678E+01
 4.045763902056E-01 2.320355694667E-01 -2.727296970181E-01 2.413389989670E-01 -1.200008373970E+01 -1.852356559008E+00 -3.271676890616E-01 -2.217878489699E+00 -1.735639193147E+00 -5.221410072101E-01 3.388785115264E-01 8.579044567354E-01 5.870567003352E-02 -6.147754558577E-01 7.920076308604E-01 -3.307548083324E+00 2.297605589622E+01
 -2.280207885528E-01 -3.513237773292E-01 -1.991314242584E-01 7.615186430732E-01 -2.458121194604E+00 2.607172358704E-01 -1.341868288446E+00 -1.389732652473E+00 -5.511428015262E+00 -7.118020678297E-02 -2.197650219003E-01 9.004913059263E-02 -1.162302522575E-01 3.645299630439E-01 6.275847858861E-01 4.247238126421E+00 2.752115763478E+00 1.516540797507E+01
 -1.283935034562E+00 -1.952780165144E-01 -1.142997812451E+00 -3.750323669363E+00 -1.765254787442E+00 1.572724803538E+00 -1.454442234096E+01 9.484776080084E-01 -4.607688756581E+00 -3.203585101214E+00 2.094661064875E+00 1.272964635938E+00 -1.491390847013E+00 -4.042610305292E-01 1.031865207756E+00 -2.475339642533E+00 1.348328318788E+00 2.785498841969E+00 3.100522763480E+01
 1.530010808681E+00 7.172401970628E-01 1.664066491509E+00 -3.243228846397E+00 -1.807568179834E+00 9.328909054142E-01 4.934185931693E-01 6.338153343093E-01 -1.545773673644E-01 3.342437323455E+00 -3.582648440239E+00 -1.396386073340E+00 2.266509585119E+00 6.030445468391E-01 6.398253952430E-01 2.235283885257E+00 -2.520456595843E+00 -8.855294898504E-01 -2.382804616565E+00 1.705364480556E+01
 7.257976842971E-01 -6.201674245321E-01 2.851014702699E-01 4.002891322614E+00 1.706583393346E+00 1.930078004896E+00 -5.096181282192E+00 9.027712966885E-01 -2.390888806292E+00 9.204206394983E-01 -1.907777624804E+00 -1.478165889579E+00 -8.299106943549E-01 -6.229292548882E-01 4.332180805281E-01 2.530835242440E+00 -2.142610664580E+00 -2.653907079145E+00 3.540135532817E+00 2.006031430969E+00 2.321450314741E+01
 -5.191096480336E+00 -1.517286074862E+00 -1.395597477853E-01 -1.912167204513E-01 -8.513965525587E-02 -1.121351024269E-01 9.496806149441E-03 -3.003833863494E-01 -2.241050418258E-01 -5.410710920109E+00 5.004965200435E+00 -4.915407575414E+00 -6.107165380179E-01 3.907454586517E-01 5.402381859466E-01 1.459320501028E+00 -7.517758058153E-01 1.241449021388E-01 2.690143547328E-01 -2.150778550650E-01 6.862182480606E-01 2.478558203262E+01
 -1.717668943436E+00 -2.800717197648E+00 -7.116881393719E-01 8.296041342470E-01 3.913930868438E-01 -5.521012575388E-01 -6.600182663083E-01 3.866524741373E-01 -6.323318028856E-01 4.966380255601E+00 -5.099484675928E+00 5.084167259063E+00 5.323030520042E-01 9.029274973814E-01 4.074926468473E-01 -2.154778308956E-01 1.252543796500E-02 6.183893176360E-01 3.366653632953E-01 7.955995251703E-01 -2.023035011707E+00 -7.423598983251E+00 1.661371596721E+01
 -4.073086856268E-01 -1.172494407029E+00 -5.698835201275E-01 9.911839362866E-01 -2.104351600064E+00 -1.468876998032E+00 -9.500220815915E-01 1.343359558152E+00 -1.034015071422E+00 -3.453935156124E+00 3.952324875821E+00 -4.021790624610E+00 -1.228426866167E+00 1.064594336041E+00 2.488573561303E-02 -1.913834463085E-01 9.271705518916E-01 -8.547479693805E-01 2.930979959705E-01 1.616410580879E+00 3.336619106436E-01 -3.627669911763E+00 7.124597509691E-01 1.901923547834E+01
 2.612347781642E-02 -2.541380246289E-01 7.274432653908E-01 -3.754998455456E-01 1.113940165036E+00 4.374553996809E+00 -5.273047775488E-02 -3.626231179758E-01 6.434067569022E-01 -5.995295088216E-01 6.577839520842E-02 -6.050359004509E-01 -1.064222294573E+00 1.459781731211E+00 1.253034602720E+00 -9.317092218912E-01 -1.341428242529E+00 9.442179360467E-01 1.260557977137E+00 -5.450520706589E-01 8.734272143286E-02 3.488928057114E-01 -8.149388897501E-01 1.206949873021E+00 2.012256793613E+01
 -2.450296951399E-01 5.196451567987E-01 -6.365518200549E-01 -2.708086990618E-01 7.142319301812E-01 5.776227271712E-01 3.779351866190E-01 2.798345986684E-01 5.876812418315E-01 -7.827623137876E-02 -1.303448876015E-01 -1.721608206207E+00 2.336990377559E+00 -2.922447496563E+00 -1.917761951128E+00 -8.826405611613E-01 -3.593979579517E+00 1.243065856943E+00 7.149946348501E-01 -4.908480595853E-01 3.162847576619E-01 -2.152116478915E-01 -3.863012262057E-01 2.835572434330E-01 3.203378842691E+00 1.426908704462E+01
 -3.067052460233E-01 -9.324559269014E-01 -7.306303100662E-01 4.059964650251E+00 -1.967542080175E+00 -1.277805394390E+01 8.787648762475E-02 9.188143289260E-01 1.935234695155E-01 -9.766230007633E-01 -2.712530840504E-01 2.428836561366E-01 2.511161203510E-01 -1.622825966436E+00 -3.479457027748E+00 9.344744299147E-01 1.243987377256E+00 -2.294537944323E+00 -1.193417550721E+00 7.630052304279E-01 -1.968046022913E+00 6.083408286191E-01 5.878072124143E-01 -3.811461384863E-01 -5.729818744336E+00 1.541459138644E+00 2.299903500187E+01
 6.902715735987E-02 1.403901148072E-01 -3.449503572336E-01 -2.043033808451E-01 5.194559386396E-01 -1.828942896683E+00 9.635846392201E-01 -1.827806843065E-01 6.016533856127E-01 9.271514535511E-01 -2.599383591329E-01 2.809593215549E-01 -5.566358796127E-02 -3.206385286766E-01 1.182907013768E+00 -6.759630685784E+00 -2.159198490969E+00 -1.588399932058E+00 -2.704048815914E+00 -6.836115148510E-01 -1.774764269471E+00 1.565094622433E-01 8.070328011615E-02 -3.012819998326E-01 -3.449185270605E-02 -3.194489201451E-02 8.214948055758E-01 1.420883851781E+01
 -3.616494455325E-01 1.075078996499E-01 5.697149455938E-02 -2.747851506685E-01 7.429805034224E-01 -6.286925097811E-01 7.558380614490E-01 -9.916240612264E-01 5.081515931641E-01 5.290486613449E-02 -8.536259340991E-02 -1.320199107711E+00 4.150236080045E-01 6.868931836921E-01 -4.704065309154E-01 -2.414208798941E+00 -1.447195131684E+00 -6.286401130102E-02 -3.363001053308E-01 -2.459038915412E+00 -2.689949735159E-01 4.212886391298E-01 4.309729731646E-01 7.041356992049E-01 2.699545187735E-01 -5.230092133161E-01 5.579195929988E-02 1.724542149486E+00 2.574339798477E+01
 -1.130251217457E+00 1.939366396369E-02 -6.299557863708E-01 -5.693488921893E-01 7.720195797246E-01 1.236927568909E-01 1.052728872474E+00 -9.981186304755E-01 1.709191425912E+00 -3.778455081338E-01 1.386700751683E-01 -6.494818547529E-01 2.617438028054E-01 -3.477294271820E-01 -7.709331452896E-01 -1.292569698302E+00 3.500927113617E-01 -1.373390107059E+00 -1.246801642336E+00 -2.174965995378E+00 -3.771183389827E+00 -5.615041990639E-01 -8.229447099076E-01 -9.360413538527E-01 -3.190968736897E-01 1.449422188503E+00 -7.327017854794E-01 9.413752071124E-01 -4.538181834496E+00 1.522580199534E+01
 1.302764489034E+00 -3.351716173445E-01 1.130762421544E+00 1.170579051672E+00 -3.093635955647E-01 1.582380964808E+00 -2.270540277526E-01 5.606150681912E-01 -3.739711323588E-01 -1.606845935225E+00 -3.478003860318E-01 -2.664666266792E+00 1.135677161446E-01 6.592748195377E-01 -1.116277438625E+00 -5.169245029293E-01 -1.769439380708E-01 -2.321651810985E-02 -6.211966760362E+00 -3.798951003429E-02 -2.508007184982E+00 -1.972990056288E+00 -3.380484320044E-01 5.856738242282E-01 1.031633564184E+00 -7.100646463796E-02 -2.159720876021E-01 -7.890384571129E-01 1.340492440511E+00 1.526962757468E+00 1.819929763777E+01
 -7.274884508423E-01 -1.630853067607E+00 -2.030196767210E-01 9.399354987464E-01 1.799708304929E+00 1.741651762708E+00 -1.739188305247E-01 2.102129995581E-01 -3.652078141673E-01 1.142101899938E+00 -1.203225527514E+00 -2.770135636380E+00 -3.826518780272E-01 -1.815136167550E-02 5.461212208794E-01 6.054983199026E-01 -2.073137864983E+00 -8.387663324504E-01 -1.090092356583E+00 -7.746168741425E-01 8.863207468917E-01 6.093355903582E-01 -3.464357916863E+00 -2.461436952492E-01 -9.926471593596E-01 3.596983469967E-01 6.388887065999E-01 1.779817303503E+00 -3.712451985519E+00 -1.226045647876E+00 4.626399367312E+00 1.932935489265E+01
 1.065216042026E+00 -1.694439860566E+00 8.355372384882E-01 -8.201713612053E-01 -1.203728715307E+00 -1.633752300125E+00 5.463812050845E-01 -7.222054891287E-02 -3.958072385802E-01 -6.281283248557E-01 -1.782337977449E+00 -5.266826654436E+00 4.245515632710E-01 7.001657045752E-01 1.047176392602E-01 -1.255994092305E+00 1.080648430025E+00 3.824373120037E-02 -4.306842469610E+00 -3.155719534719E-01 -2.859968599609E+00 -5.427762604468E-01 -7.822493175027E-01 -2.707739587818E+00 1.142115239876E-01 1.220154046158E-01 -2.182183633260E-01 1.466169620453E+00 -1.361171376070E+00 -1.345161971715E+00 6.415146198665E-01 -3.179095742274E-01 1.826518199346E+01
 -1.102436829876E+00 8.000376599954E-01 -2.091189227762E+00 6.998958607988E-01 2.623873667936E+00 1.997590782059E+00 -1.048070314708E+00 -1.103049524787E+00 6.055351517057E-01 9.934127681078E-02 -3.399576520350E-01 5.789543521508E-01 -9.407795956419E+00 3.625561823801E+00 -1.795497234672E+00 -2.021607961765E-01 -9.484829966312E-01 2.497526207080E-01 2.007376509095E+00 -1.204542297709E+00 -4.051725232900E-01 -3.059074942930E+00 -2.382936986247E+00 3.630155463491E+00 -7.178652052685E-01 -6.211938997223E-01 9.905033925328E-02 2.502781568742E-01 -9.230806009546E-02 3.623056980150E-01 -1.150407934145E+00 -2.650124689464E-01 1.493997691015E-02 1.756357119258E+01
 3.683824134665E-01 -1.074877106397E+00 -3.833148925942E-01 -5.506722889598E-01 1.636200363698E+00 -9.922173987400E-01 4.411738216940E-01 -2.609235811117E-01 -4.734291354791E-02 -1.996708954888E-01 -1.068447818147E-01 -1.810899209058E-01 5.390916566925E+00 -2.107424699027E+00 1.556442544872E+00 -1.598040860881E-01 -2.877134932485E-01 -7.651312276475E-01 -9.153131718196E-01 7.402338834457E-01 5.627643091490E-01 -1.072082101549E+00 -3.231420811990E+00 5.768031925116E-01 -1.234780812593E+00 -1.846489451478E-01 5.742201914948E-01 -1.254705522848E-01 4.262475053539E-02 -9.181104163132E-02 1.382204002266E+00 -7.865919212266E-01 1.654744573792E-01 1.291011035961E-02 2.451604885611E+01
 -2.031994350662E+00 -2.278408241645E-01 -7.381976772062E+00 -6.736946332915E-02 -8.093090996661E-01 6.254084620820E-01 -3.118302900172E-01 1.690749465810E-01 2.982039581563E-01 3.327303973330E-02 2.234968745464E-01 1.304733260387E+00 -3.370251900341E-01 1.394788992672E+00 -8.139951260717E-01 1.646770668657E-01 -5.925011826475E-01 8.521392388628E-01 1.455776230236E+00 -4.056931135357E-01 -1.131085153828E+00 1.581843503700E+00 2.730741471798E+00 -3.552114711829E+00 -5.861749971032E-01 -5.309870402923E-01 9.052313768329E-02 5.426257608565E-01 -2.447396853656E-01 2.606876340861E-01 -1.944129642803E+00 1.230523656325E+00 -5.434850753420E-01 2.214886527495E+00 -4.896254574753E+00 1.623097146008E+01
 9.555312249739E-02 8.693119562131E-01 -4.402737278785E-01 -7.348650166162E-01 2.327175380548E+00 1.794771775004E+00 2.190690551598E-01 2.610120668220E-01 -6.302899409259E-01 -6.782138295340E-01 5.301320548676E-02 4.858039879620E-02 -6.891842841394E-01 -3.098861861681E+00 -9.244686906768E-01 5.115123532075E-03 1.919558052857E-01 -1.129902310471E+00 7.566902508921E-02 -1.502885639624E+00 -3.713164208727E-01 2.491335335763E-01 8.835659940225E-01 1.988545787962E+00 -8.923397987688E+00 7.448662352268E-01 -1.101785085766E+00 6.807826442643E-01 -1.138533853184E+00 1.464638909495E+00 -8.259077991872E-01 1.136641908275E+00 1.591869607345E-01 -4.316586148697E+00 7.566569138099E-02 -3.526535858706E-01 2.286792634629E+01
 2.817499493847E-01 -3.972310088193E-01 -4.813850316562E-01 -2.750972237349E-02 5.443466675283E-01 -7.277824352022E-01 5.621516558903E-01 9.969823216756E-02 2.385187798380E-01 -1.162695398531E+00 -1.170432387598E-03 -9.088369602748E-01 -1.097281501335E+00 -2.799531796523E+00 -2.127584885650E+00 2.427712126162E-01 -8.232010953336E-01 -8.477100639421E-02 -6.511319816449E-01 -8.222183023869E-01 -1.923690242272E-01 6.369624619906E-01 -4.079404165772E-01 2.548689565942E-01 2.156669292821E+00 -1.156173782516E+00 1.252205816517E+00 1.874575454148E-01 -1.282836770645E-01 8.678404853264E-02 5.568543493613E-01 6.662252564429E-01 -1.368662779326E-01 6.986162642525E-01 -2.588400344665E+00 -5.664947776727E-01 -1.974944420399E+00 1.744279968237E+01
 -1.730581921534E-01 8.267432342887E-01 -3.790920566246E-01 9.522949003282E-01 -1.070958557566E+00 6.235882940434E-01 5.370248588142E-01 -9.357656251829E-01 6.426907612706E-01 5.920820655477E-01 2.984922738930E-01 -2.518583005807E-01 -4.289943596983E+00 -1.769146210940E+00 -4.970273164138E+00 -9.418237112325E-01 1.819171408217E+00 -1.569577622781E-01 -1.429713125967E+00 4.774107056526E-01 -6.472955511673E-01 -4.308900173608E-01 5.518084932443E-02 -1.073677334093E+00 -1.550365052038E+00 6.054964811619E-01 -9.857199533359E-01 -7.402320518566E-01 -2.839796004898E-02 2.004694547638E-01 4.522124418681E-01 -1.729636211548E+00 9.606014832439E-02 2.681517598404E+00 -1.804178575818E+00 -7.327132743414E-01 9.856647713793E-01 -7.197210751913E+00 1.972429289514E+01
 2.464312294171E-01 -5.402169822197E-01 1.874786821873E-01 4.127752860812E-01 5.017220257271E-01 -1.422936735145E+00 5.428720967728E-01 5.980586099403E-01 -1.123043293927E-01 2.487494635424E-01 -1.677240857198E-01 2.033411846361E+00 9.390950207022E-01 -1.168740196713E+00 -4.485559516010E-01 -1.222969556314E+00 1.622835173211E-01 -2.939311534571E+00 -2.580497579708E+00 -1.663992667930E-01 -9.376061517234E-01 -2.962883858392E-01 6.472800814358E-02 -1.171185767806E+00 -3.311414074953E+00 -2.797995722996E+00 -1.451542943331E+00 -5.360388648091E-01 -2.866607203877E-01 8.069291338111E-01 1.180194727471E+00 6.951419163041E-01 1.551659538608E+00 5.513730800180E-01 3.817869273512E-01 9.852061097592E-01 5.953711221315E-01 -1.107111789419E+00 5.184352644247E-02 1.892045287925E+01
 -4.739120656305E-02 -1.261268939947E+00 6.457326952940E-01 -6.934748548434E-01 1.508155443657E+00 1.047958484560E+00 4.007854817931E-02 -8.112469443516E-01 1.867650857633E-01 -3.050206048541E-01 9.859283973464E-02 -3.094406133547E-01 2.306798562878E-01 -9.675901187167E-01 -8.097841424547E-01 3.036690263353E-01 -1.248649032932E+00 -1.959897696571E-01 -9.095712187698E-01 7.592881547575E-01 7.335937733376E-01 -4.771243199936E-01 -3.816911961673E-01 -7.387192122300E-01 -4.938338450516E+00 -6.094311970876E+00 -2.901511512554E+00 -1.961217421469E+00 -2.664516126691E+00 1.863493843317E+00 2.009436101616E-02 -3.446443250462E-01 4.759673792849E-01 8.893271484215E-02 -1.507220511244E+00 1.371174245855E+00 6.452078978702E-01 3.507123252215E-01 1.096846049418E-01 -1.961703019488E+00 1.417685519220E+01
 2.675916127851E-01 -2.963670176309E-01 -4.033546966135E-01 -1.217908641715E+00 1.421165570719E+00 4.729879000487E-02 -6.163464352234E-01 -1.007056727595E+00 4.124764600326E-03 -1.187883234479E+00 -6.201375264168E-01 -1.023132975456E+00 1.070116138677E+00 -9.180044033189E-01 1.045991576294E-01 -4.273116756412E+00 3.658895677383E-01 -5.098983458200E+00 7.277722617611E-01 1.118388781237E-01 -2.256485109089E-01 -1.770599265601E-01 -1.917640096908E-01 9.197852662959E-01 -1.614861532173E+00 -2.497363487623E+00 -1.492138688565E+00 2.479761069973E+00 1.233374788280E+00 -4.631570952436E+00 -4.895199830146E-01 7.438823799416E-01 3.227694017810E-01 -1.804348003317E+00 -1.075774797896E+00 3.235611551400E-01 -5.133162495875E-01 1.508520915447E+00 -9.443473636548E-01 -4.555464117116E+00 8.255960013447E+00 2.216169227150E+01
 -1.120532059600E-02 3.695590088806E-01 -2.489834496490E-02 -4.204490902953E-01 1.015115025650E+00 8.219329654640E-01 -6.329992397375E-01 -8.122736216572E-01 -1.837644026534E-01 1.235346141065E+00 1.119328304321E+00 -2.953166228870E+00 -3.135176139186E-01 -4.069746655134E-01 -2.223763955933E-01 -7.372562217241E-01 -2.217152439850E-01 7.758574143645E-01 2.807181584074E+00 4.995687237672E-01 1.691322209608E+00 1.497551298211E+00 -1.601743659952E+00 -7.108897201830E-01 4.570302370174E-01 -9.243177294460E-01 5.093052567088E-01 -4.155005828704E+00 2.644887434795E+00 -2.197111640508E+00 -3.033714654212E+00 1.432936580722E-01 -3.022001287446E-01 -6.408537170776E-01 -7.542095321959E-01 -3.326776059499E-01 -3.068045609148E+00 -1.396060112672E+00 -2.329534343338E-01 -9.756235810471E+00 3.297341945280E+00 5.033423275554E-01 2.183141317204E+01
 9.371105272218E-02 6.296169429892E-01 -1.812670568905E-02 -1.810466021005E-01 2.942736389026E-01 -5.498334601236E-01 1.653056096301E-01 1.386933337872E-01 6.640372784299E-02 1.286548319446E+00 -1.961061226100E-01 1.073329344101E+00 1.083996824735E-01 -6.605652252640E-01 7.632864199421E-01 1.087533458165E+00 6.420389357174E-01 -3.871800646946E-01 -1.881942912394E+00 1.847942906165E-01 4.892593192215E-01 -1.122669506018E+00 -2.179050393410E-01 -6.094220492856E-03 1.197475839435E+00 1.081003035520E+00 -4.687015148111E-01 2.483050480643E+00 -5.651690382196E+00 3.587502933519E+00 2.405275224077E+00 -1.015356915539E+00 -1.600015779935E+00 -2.226011018802E-01 -1.197245614572E+00 4.769104265769E-01 -1.273359798599E+00 -3.703928516869E+00 -1.101328292276E+00 2.087364842740E+00 -2.493707952380E+00 -7.166867832710E-01 -4.000274911062E+00 2.086930061046E+01
 -3.866197577800E-01 -2.582858125108E-01 8.183732066895E-03 4.888499323298E-01 -2.317895179593E-01 6.329911501519E-01 -1.353046421579E+00 1.804919682630E+00 -9.746626957401E-01 2.929189974604E-01 -2.043300504956E-01 -1.076011731607E+00 2.113484507530E-01 -5.653271751573E-01 -1.629692242334E-01 3.866400210739E-01 -3.139899148921E-01 4.073713575153E-01 1.256129894048E+00 -4.353349199597E-01 1.191287811567E+00 1.136477735259E+00 -1.598327026828E-01 -9.379958854003E-01 9.729230274168E-01 2.983498313258E-01 2.148123570717E-01 -2.746920880252E+00 3.465878004523E+00 -5.108883412633E+00 4.576193489345E-01 8.845621166035E-01 -5.948876961200E+00 -2.530171654359E-01 -7.942141806372E-01 8.593252267433E-01 -1.401655178736E+00 6.647619964550E-01 -1.601658658676E+00 1.378262329029E+00 -9.998644181380E-01 -1.005475541655E+00 3.976233516956E+00 5.175920755277E+00 1.750297734179E+01
 -1.286480269310E-01 -6.223135576712E-01 3.383850457832E-02 9.283997987958E-01 -2.899761286506E+00 -2.713635133615E+00 2.032437109371E-01 -1.512762578458E-01 1.626668065940E-01 9.669253250930E-01 -5.265513076174E-01 1.203280669110E+00 -2.352190199271E+00 2.943408510922E+00 -1.152846591632E+00 -3.652276394530E-02 1.569843709009E+00 2.653767948081E-01 -1.333979175240E+00 2.552623051479E+00 -1.758325278296E-01 -1.246972828161E+00 1.593691907771E+00 1.310835567619E+00 1.752739819200E+00 2.054858335958E+00 1.254128149144E-02 1.270028391220E-01 7.904875959009E-01 -2.874037044303E-02 2.529860137864E+00 -2.109043359689E-01 -2.475130031967E-01 2.611418167117E+00 -5.081724241289E+00 7.255077309377E-01 -7.139058058413E+00 -5.729942816281E-01 4.059998462974E+00 -1.906995090720E+00 6.420720207529E-02 1.566638059561E+00 -8.688131196964E-01 4.155416104973E+00 2.460065860559E+00 1.095935261534E+01
 -8.800243849289E-01 -1.315812045060E-01 2.510387915017E-01 -2.681763050140E-01 -2.106634099123E+00 -3.605110514535E-01 8.609878474982E-01 -2.497353345751E-01 -2.669709886637E-02 -6.396568182577E-01 1.171795698198E+00 -2.019021233806E+00 -1.380742239723E+00 5.231146423345E-01 -1.243986682841E+00 1.319741057648E-01 1.016969389210E+00 5.777739547425E-01 1.514113705179E+00 -1.186089745989E+00 -5.437003549538E-01 2.763571870703E+00 -3.466505461213E+00 -5.531769391968E+00 2.032517193569E+00 3.870110594711E-01 1.622904188872E-01 2.147152637690E-01 6.942266431159E-01 1.208065255496E+00 -1.143384181198E+00 -1.997212244920E+00 4.658506480901E+00 -3.878874767289E+00 -9.054289629725E+00 -2.706200294216E+00 -7.554231138796E-01 5.484586855777E-02 3.408725392053E-01 5.627327717907E-01 6.461838606469E-01 -9.077410940865E-01 3.845435443792E+00 -9.252219129378E+00 -4.983710368218E+00 -1.466738709595E+00 2.549853017612E+01
 -3.231363682647E-03 3.475393710487E-01 -1.096561808532E-02 -4.158460159715E-02 3.830408930937E+00 2.853304563876E+00 -2.271812151941E-02 -1.459007305211E+00 9.434036045352E-01 4.021900774497E-01 -9.522657166992E-04 1.046987454524E+00 1.027297755267E+00 -1.201827925094E+00 3.834930728852E-01 9.115508741239E-01 -1.395265342562E+00 -2.439849033141E-01 3.658319230590E-01 -3.597840176964E-01 1.186973446843E+00 4.612472835211E+00 -4.565856488809E+00 -7.091888013721E+00 -4.766415585662E-01 -8.546697416116E-01 1.108977427532E+00 3.791344363270E-01 -4.470503841965E-01 1.375635355559E+00 -2.127527304693E-01 5.063332068133E+00 -1.047670788769E+00 -2.197093129051E+00 -8.978098961306E-01 -8.011913502288E-01 4.077928161564E+00 8.876519852623E-02 -1.056111429134E+00 5.307740986681E-01 2.758510862726E-01 -5.000080200771E-01 2.434506163600E+00 -4.588503873058E+00 -1.799362426897E+00 -7.385626025587E+00 7.863673859623E+00 1.487534437836E+01
 -5.579899586999E+00 6.746537059754E+00 -1.995598069945E+00 -1.355367806969E+00 2.299563675718E-01 6.554785109399E+00 -3.788248153335E+00 3.245413508174E+00 -6.956455388051E-02 -1.265134185283E+01 -1.222510652451E+00 1.427186096151E+00 -2.271768841276E+00 -1.924213849672E-01 -1.337347634753E-01 7.715620706563E-01 8.432735068714E-01 4.741828716100E-02 5.118311667681E-01 -2.650669214815E+00 -9.411670398796E-01 1.796394160847E+00 -1.379271691447E+00 -2.193357695500E+00 3.679301857622E-01 1.821309614715E+00 5.036303592080E-01 -1.260873725150E+00 -1.289807223537E-01 8.786993390979E-01 6.691748161490E-02 -1.305456386323E+00 -1.640655574819E+00 9.879452624513E-01 -1.277668518950E-01 4.637996662557E-01 2.950958284813E+00 2.908226998747E-01 -2.653472750785E-01 -1.300131972180E+00 5.229762900573E-01 1.620359117728E+00 -3.499385294446E-01 -7.708402292668E-01 -2.959999321089E-01 -2.359324225262E+00 -2.608244664294E-01 5.575843238595E-01 2.854372634794E+01
 5.559774119798E+00 -8.998263411894E+00 2.861855658796E+00 3.226499325678E+00 -1.302140599090E+00 -4.066918674470E+00 3.318970793684E+00 -5.328393549642E+00 -3.076771033668E-01 -2.863725362895E+00 -2.076754566903E+00 -6.214514752740E-01 -1.251851214300E+00 -6.739594652519E-01 -1.681920378794E+00 -7.953108552759E-01 1.596874808350E+00 4.789467724208E-01 -3.009938284621E+00 -3.657475436435E+00 -3.144775012241E+00 -1.212943145445E-02 1.281826721544E+00 -5.041293080104E-02 8.299103047099E-01 -1.536882425659E+00 -2.378174661773E-01 1.135649109657E-01 -6.491196780544E-01 -1.363472824703E+00 1.026920795614E+00 5.674800110523E-01 1.975391075388E+00 1.128788598317E+00 -3.820534047739E-02 2.861463280938E-01 -9.847726490035E-01 7.609759633532E-01 -2.692646494374E-01 3.221522549506E-01 8.732407206713E-01 4.309710734059E-01 -1.079594372695E+00 4.168660566598E-02 -8.117287925351E-01 -1.060706979577E+00 4.063417407953E-01 -9.593005500621E-01 -7.092182028142E+00 2.212101832997E+01
 -2.257815983458E+00 2.720185032091E+00 -1.099603576230E+00 7.946225511147E+00 -4.653195285036E+00 -9.466383264402E+00 -2.197594521626E-01 7.084525306748E-01 -1.036513895958E+00 2.699657785268E+00 -2.164979416279E-01 -2.685619974157E-01 -1.004285776095E+00 -1.256068830799E+00 1.566337085236E+00 6.102311967960E-01 3.590477403873E-01 6.373674462289E-01 -2.833018240166E-01 -2.590201731601E+00 -2.640735700783E+00 -8.365345706604E-02 6.682798352529E-01 8.926366996119E-01 -5.401779316493E-01 -1.012631425524E+00 -2.311109231954E-01 8.019506410095E-01 -9.016594978231E-01 -7.896001565809E-01 -6.206070103731E-01 -1.589304611315E-01 1.977701277741E-01 -3.769577762370E-02 1.661041749434E-01 -7.410058724857E-01 -8.861546702278E-02 4.150276715739E-01 -8.008139091748E-01 3.781253249355E-01 -5.337974505531E-01 1.119346686793E-01 -1.335108276738E+00 1.030471747212E+00 3.599056740699E-01 -1.258124378199E-01 1.804632503006E-01 -1.139768973887E+00 -2.395418328737E+00 4.885609444047E+00 1.820843202007E+01
 2.022900171934E+00 -3.047643857809E+00 -1.003411665744E+00 -4.792421312265E+00 1.324709892382E+00 -2.504722306071E+00 -6.439786667669E-01 3.457130089098E-01 1.990600835060E-04 3.046648099043E-01 -2.254155021210E+00 3.275030007104E+00 -3.587174193197E+00 -8.994355704288E+00 4.937948187151E+00 -4.660854080641E-01 -3.921244842713E-01 6.393077472741E-01 8.946930500514E-01 -1.542151051095E-01 -4.597886749758E-01 -9.868251650721E+00 5.155974846322E+00 3.699379506356E+00 -9.650121276890E-04 -1.404283072063E+00 -4.028847343043E-01 -4.350961135435E-01 -1.335096154583E+00 1.116443184389E-01 -3.441145249855E+00 -4.060388737470E+00 1.104456382450E+00 -2.620809608545E+00 6.997795350190E-01 -1.858907780191E+00 -2.891389586849E+00 -6.151766542672E-01 6.525982238038E-01 5.031255978555E-01 1.242663878353E+00 2.982112840735E-01 -6.394535279615E-01 4.671506454752E-01 -3.641387687140E-01 -6.177358430625E-01 -4.026479108127E-03 -5.184933730578E+00 -3.747183218246E+00 1.045728559711E+00 -2.595768073489E+00 2.404551875737E+01
 -2.206074056500E+00 -9.936232805239E+00 -8.731165030741E+00 1.164898362662E+00 -4.456799975923E+00 -2.319991117940E+00 1.740497392009E-01 2.526203562019E-01 5.280666043121E-01 -1.953588299873E+00 -2.884135033768E-01 3.411545603183E+00 -8.975751487024E+00 -4.166501303587E+00 4.375020675558E+00 -3.347672177137E-01 2.252957419096E+00 6.729540759692E-01 4.588416667398E+00 -4.333316026645E+00 3.721279240814E+00 2.850072835426E+00 -1.160917947264E+00 -2.873529483673E-01 -7.500553898088E-01 -7.783774632518E-01 4.529894155643E-01 1.463652185859E+00 -5.982563440741E-01 7.818866660319E-01 -8.418932944613E+00 -5.803539904610E+00 6.063724505157E-01 3.856942740444E+00 -8.074325668749E+00 3.843833754126E+00 1.288445095126E+00 3.869669714348E-01 1.887548747668E-01 3.198222968716E-01 2.168092782406E+00 1.929103807748E+00 -4.109340334746E-01 4.299924267912E-01 -5.673568746528E-01 -8.124272656919E-01 1.069830432358E-01 -6.666611829229E-01 6.689880099762E-01 -2.603379267419E+00 1.612850597206E-01 2.202565060095E+00 4.698476313312E+01
 -1.153438736161E+00 -8.052112476204E+00 -3.546007492132E+00 -3.623562468356E-01 -4.033543892140E-01 4.789874392569E-01 7.208228729744E-02 6.375804912211E-01 -1.445986411264E-01 1.753271757851E+00 3.145005794980E+00 -1.261964890427E+01 5.856461856221E+00 3.501234395867E+00 -1.253057130462E+00 3.190629199574E-02 -1.654937988623E+00 -7.974979820946E-01 -1.143079260476E+00 -5.174231679386E-01 -1.646182647868E+00 2.471404535262E+00 -1.279235986812E+00 1.501150467883E+00 -2.982739280463E+00 1.030342946568E+00 1.257642063298E+00 -6.219212915411E-01 2.829900185347E+00 7.553246256191E-01 1.447862799961E+00 -3.051590883362E+00 1.183924162805E+00 -2.921131411475E+00 5.809557236977E+00 -4.180742250752E+00 -9.758322063822E-01 5.388018764981E-01 -3.822359297334E-01 -3.962933458765E-01 -1.940390750810E+00 -1.102378195067E+00 2.980905600653E+00 -1.423427638747E+00 7.837306932477E-01 -8.147977125877E-01 3.269674784986E+00 -3.395936779202E+00 -1.503008674095E+00 1.985462742852E+00 -4.425341238201E+00 -4.932081320161E+00 5.675498003203E+00 3.261341123371E+01