#BIOSYM hessian 1
#COMMENT: Materials Studio generated
@Type: Hessian
@Units
 distance: 	A
 energy: 	Kcal/Mol
#header
@natom 19

#label
Li      Li      Li      Li      Li      Li      Li      Li      Li      Li      Li      Li      Li      Li      Li      Li      Li      Li      Li      

#element
Li Li Li Li Li Li Li Li Li Li Li Li Li Li Li Li Li Li Li 

#matrix
57        
 1.687910050462e+003
 -9.496161611895e+001 1.573057313520e+003
 7.506347894321e+001 7.258912970382e+001 1.526304596224e+003
 -1.466219360460e+002 -4.557683125825e+001 -1.188298094615e+002 1.517973630199e+003
 -3.259366221550e+001 -1.090960772816e+002 -3.558007256532e+002 -3.060335481093e+002 1.390535871676e+003
 1.646811240990e+002 2.055403598600e+002 1.292548520214e+002 2.334721553475e+002 -6.593263760885e+001 1.120478057661e+003
 -9.666544258743e+001 -3.130473395786e+002 1.151998899083e+002 5.012915378775e+001 6.386311807322e+001 4.543667887561e+000 1.230905695375e+003
 2.890635017939e+001 7.811193076640e+000 2.808035268713e+002 -4.254454636363e+001 2.957812296429e+002 -6.859126532493e+001 -1.166196075312e+002 1.241796197407e+003
 2.979951951732e+001 3.080710903469e+002 4.113021031046e+001 -1.487359027110e+002 -1.317844157655e+002 9.967881618749e+001 -1.807255756168e+002 -3.582906231600e+001 8.581938054840e+002
 -4.355249152268e+002 1.306285325208e+002 -7.294183769169e+001 6.268518351494e+001 -1.679076628496e+002 -1.638608959963e+002 5.872198390385e+001 -2.485172036313e+001 6.207157646468e+001 1.372753753884e+003
 8.536647507557e+001 1.464991558861e+002 -9.518202666702e-001 2.918760570490e+000 -1.027638240481e+002 1.279383001119e+002 -8.934809633659e+001 -1.467595646286e+001 -1.501747558673e+002 -3.289043986648e+001 1.595457400617e+003
 1.568828888041e+002 -1.012962681938e+002 -1.116559075369e+002 -1.439935907159e+002 -1.059081291465e+002 9.812928744706e+001 6.936278688005e+001 7.197973685981e+001 5.903056261926e+001 2.439317927680e+002 1.156708495284e+002 1.874848667632e+003
 -1.003902005793e+001 9.696330445238e+001 -3.247440053820e+001 -6.920311107665e+001 -1.111968843430e+001 1.548311080793e+002 -1.664592922888e+002 2.895069521008e+001 3.399044233386e+001 -4.752641195590e-001 -3.466937925537e+002 -1.008763538167e+002 1.595721450249e+003
 2.141820005805e+001 2.296290063822e+001 7.186309416474e+001 -2.050220575938e+002 1.956760616153e+002 3.272980779415e+002 -7.033945512108e+001 -2.818152050961e+002 2.117216287232e+001 6.113713729518e+001 -1.564855816696e+002 1.044122144765e+001 -1.359549217031e+002 1.693607284871e+003
 -1.229865188851e+002 -1.187737623458e+000 3.699648827220e+001 -3.474998503500e+001 6.067826593501e+000 2.761004778872e+002 1.043803124290e+001 1.713014301090e+002 -2.357090255354e+001 -2.088419641338e+002 -1.309801510562e+002 2.280929953323e+002 6.663316110067e+001 -2.693741457323e+002 1.143901045380e+003
 1.482931659573e+002 3.692900295334e+001 -8.040596185767e+001 1.988698733629e+002 5.623466237004e+001 -9.111792436070e+001 1.204923382822e+002 -2.294199914974e+002 -7.667707329230e+001 5.708947639398e+001 1.421720717732e+002 -7.293408365072e+001 1.518394525635e+002 -1.698059297450e+002 -2.042267128784e+002 1.014021560917e+003
 -5.211094311817e+001 -7.007456551512e+001 -9.049939834915e+001 -8.409799537679e+001 -8.369072976617e+001 -1.913413516951e+002 1.713733430534e+002 5.003133808140e+001 -3.860228376169e+001 -1.067957365636e+002 2.183214119371e+002 -8.896707337246e+001 6.511355084062e+001 2.270562825865e+002 1.209637008929e+001 -3.997720328478e+002 1.371926783529e+003
 -2.455893902692e+001 2.722984649232e+001 5.648625382187e+001 2.130266486427e+001 1.546315575821e+002 -9.643048745083e+001 -4.453567047224e+001 -1.876981091211e+001 5.459150485172e+001 -9.480516717685e+001 3.513942688428e+002 9.218558655772e+001 -8.913876174066e+001 -9.538736387972e+001 -2.072287050334e+000 1.677255203119e+002 1.483628034563e+000 1.016807190796e+003
 2.395897382282e+001 -2.261617791897e+002 -1.463086128697e+002 2.799544789550e+002 -9.636936532451e+001 -2.033950038819e+001 -1.213035253896e+002 2.110263357400e+002 1.258817428865e+001 1.324653944541e+002 1.228036486853e+001 5.066786537579e+001 -4.291309503743e+001 2.592280237469e+002 5.596314738618e+001 2.572286668781e+001 8.057267271650e+001 -7.040469239558e+001 1.393472544406e+003
 3.525081536086e+001 -2.875956573479e+001 -7.531931327844e+001 1.439027647046e+002 1.263119108588e+002 8.039984211602e+001 6.754295487501e+001 -4.682597820987e+000 1.548279322827e+002 -1.428770739340e+002 8.533965406079e+001 8.292289445399e+001 1.752749873608e+002 -4.778424659645e+001 -1.174740269123e+002 5.858713250770e+001 7.223384092840e+001 -1.396854740407e+002 1.765847681338e+002 1.894788460285e+003
 4.087244338455e+001 -1.066518620895e+002 2.344051472526e+001 -2.097351944754e+002 1.254591042997e+002 4.069998458126e+001 -1.202740387536e+002 -2.850076107944e+001 2.415632193386e+002 2.110759849911e+002 -2.302952446511e+001 -1.445570442151e+002 -9.976058027777e+001 -1.420721816192e+002 3.121724819201e+002 9.026973235486e+001 -6.721675826840e+001 3.988759808406e+001 2.868020816640e+002 1.335838625388e+001 1.658423826897e+003
 1.637770491607e+002 9.705739320321e+001 -5.892775864534e+000 -2.824464871690e+000 1.251165366448e+002 -1.889382887760e+002 1.158347654250e+002 -9.312719150562e+001 -2.883576754250e+002 3.838502445164e+001 1.322252637888e+002 4.530685194280e+001 3.168488300550e+002 -3.113323864032e+001 1.125926460623e+002 1.721430214508e+001 4.940179875216e+001 -9.478186775897e+001 2.126385885641e+002 -2.250154148036e+002 -6.522971335249e+001 1.655824741023e+003
 4.166231250119e+001 4.730491059677e+001 2.699200419543e+001 -6.398001479446e+000 2.516740500821e+001 7.129148655438e+001 1.486451395622e+002 1.487559715152e+002 -1.207725549373e+002 1.864428155524e+002 3.272900079359e+001 -7.463054427509e+001 2.051527950422e+001 7.743615769370e+001 -1.307772958436e+002 8.185454425380e+001 -1.019302417076e+002 1.087272766713e+002 -6.489197247956e+001 5.911535564290e+001 1.518372588157e+002 4.207631309114e+001 1.781290951622e+003
 -7.388522284698e+001 -1.439722701346e+002 1.247110038508e+002 -1.033252698441e+002 -1.060080397469e+001 -1.276756642371e+002 -4.387093628451e+001 -2.235952372569e+001 1.537353205410e+002 4.614660983824e+001 9.491242444530e+001 -6.571471913160e+001 1.102048687527e+001 -8.213274217138e+001 -1.342937609616e+002 1.693922232428e+002 -2.701552369102e+001 5.501765733631e+001 -2.429370122404e+001 1.235000185354e+002 9.360959089189e+001 1.185818544570e+002 -4.015305685983e+002 1.295673321876e+003
 2.254929918629e+002 3.852853581553e+001 1.012017278362e+002 6.997742902761e+001 1.158390170715e+002 -9.172138276472e+001 1.480053773359e+002 1.870495533997e+001 2.713133935614e+002 3.721557733648e+002 -1.046398445237e+002 7.813535216020e+001 -5.715002804237e+001 1.844450137498e+001 8.434605589686e+001 9.537735014341e+001 9.044706660405e+001 -5.058935375550e+001 -9.931339959327e+001 3.290078366078e+001 6.638846840031e+001 -6.293484488322e+001 -1.867733730048e+002 -8.932906187819e+001 1.320318590415e+003
 4.723291334534e+000 -1.368317779347e+002 5.109904104034e+001 7.801764055897e+001 1.506575169480e+002 4.538672966102e+001 6.607639529348e+001 -2.600905684054e+001 -1.320608669630e+001 5.788671992719e+001 5.718346875077e+001 7.570787217159e+001 -7.755754110521e+000 5.637681384623e+001 2.279189650719e+001 6.814620128217e+001 -1.042955838862e+002 -2.731184566646e+002 -1.049124747628e+002 -1.470006075696e+002 2.925215159803e+001 -5.297686323045e+001 4.521785929105e+001 1.868636249063e+002 -5.036070226830e+001 1.654897979200e+003
 -1.180116347256e+002 -1.708794354505e+002 9.166189922570e+000 -5.798656307605e+001 -2.533776176805e+002 1.673190403240e+002 3.244656740042e+002 4.851093916902e+001 1.814622515351e+002 -1.490270546855e+002 1.223611460920e+002 -5.826605938126e+001 7.621362824473e+001 -2.881856061732e+001 1.902820672909e+002 -1.388008893075e+002 6.846021913010e+001 -7.940935298897e+001 8.016106127770e+001 -9.815319808058e+001 2.626875448407e+001 -1.153777092944e+001 2.127658347450e+002 1.875112170836e+002 1.137956050915e+001 -1.651403581199e+002 1.497700293684e+003
 9.042099704714e+001 -1.041746108205e+001 -9.522905118538e-001 -5.440920480062e+001 1.121793890250e+002 -6.385148371600e+001 8.091895359732e+001 -6.208759605000e+001 1.927091978143e+001 -1.206139050678e+001 -1.366760135429e+002 1.218741602390e+002 3.632927876012e+000 -1.553649590909e+002 -1.686497006090e+002 6.423509935430e+001 -1.196496753124e+002 -3.341561241397e+001 6.456146858531e+001 -8.312133275594e+001 -1.924202034843e+002 -2.303933310544e+002 -1.821777445556e+001 -8.664629648797e+001 -5.254077153767e+001 -5.021711772658e+001 1.841654596543e+002 1.709377306989e+003
 -2.374104737591e+001 6.494241161241e+001 1.301441132430e+002 -2.253755892653e+001 1.341413899088e+002 9.746574879233e+001 4.304498275120e+001 1.862411874305e+001 -3.036329123190e+002 2.249859381454e+002 2.068883960011e+002 -1.982593559074e+002 6.902153462108e+001 -3.215879162142e+001 1.780062089021e+002 -1.264385241490e+002 5.489633909128e+001 -1.398674018866e+002 -2.831184048833e+001 1.250350371742e+002 -4.163510160541e+001 -4.813204414759e+001 -2.576754274494e+002 -1.299955907254e+002 1.376324052538e+002 1.318615382302e+002 6.705286161361e+001 1.624789849064e+002 1.500504813103e+003
 5.845868175972e+001 -1.449884915460e+002 -1.140855899185e+002 7.207564814830e-001 4.713057885889e+001 1.855485927989e+002 1.601961519896e+001 1.731650213908e+002 9.198930723589e+001 1.890599726922e+002 5.459922664445e+001 -1.480745996705e+002 -7.123734945875e+001 1.531703312074e+002 -3.418145236506e+001 -1.921240112294e+001 -2.689184860645e+002 8.251311161462e+001 -7.420684101230e+001 2.207214304125e+001 -1.435719812668e+002 1.121852012611e+002 6.507650524593e+001 2.217774216110e+002 8.556090835397e+001 -2.339588334684e+002 7.535311941071e+001 -3.967195229796e+001 1.729114128579e+002 1.628013149313e+003
 -1.414025454390e+001 1.070235083958e+002 -3.731322382441e+002 -2.349392395107e+002 1.018074741481e+002 5.716961223605e+001 -8.480833104501e+001 1.460115282516e+002 1.378869520957e+002 1.892575710758e+002 1.829693388605e+002 -3.006051194396e+001 2.021861172512e+002 -1.731648442076e+001 7.962975281316e+001 1.309013749898e+000 6.826339799943e+000 1.672293775527e+002 1.663608025380e+002 -9.599897061991e+001 -1.196621266853e+002 -9.631125113664e+000 2.703774566192e+000 3.580668520197e+001 -3.879815420120e+001 -1.016425856814e+002 9.864829714925e+001 2.344173798269e+002 7.933291266782e+001 -8.451998451577e+001 1.081155393256e+003
 7.499487090083e+001 5.232422583720e+001 -2.640622021235e+001 9.662141438650e+001 5.293867705725e+001 -2.621240944522e+002 2.086476417161e+001 -2.781384954709e+002 2.763526962255e+002 6.211002534035e+001 6.096312952593e+001 -2.176006346328e+001 -2.248120545617e+001 7.088121408808e+001 8.160263992190e+001 -1.371530982824e+002 -1.531976223943e-001 1.118699526504e+002 -3.173359775842e+001 3.321552713454e+001 4.344251486551e+001 1.163016830195e+002 -4.434792096775e+001 -9.692233989997e+001 -7.788899163406e+001 -2.947241152708e+001 1.084528530359e+002 8.316315990928e+001 5.947540776986e+001 -2.618817665750e+001 -1.386453531404e+002 1.839486396130e+003
 2.520603869507e+001 -5.303964417700e+001 1.818382574913e+002 -1.476654529287e+002 -1.872185990574e+002 -2.082853745163e+002 3.783323077806e+001 -2.941091131605e+002 -1.266800970548e+002 5.197145575380e+001 -1.314905844475e+002 4.939138727238e+001 -3.951793094710e+001 1.546774266070e+002 1.420135680318e+002 2.316494173413e+002 9.720561147177e+000 1.617781119302e+002 -6.455611047193e+001 9.657433732449e+001 6.787170702527e+001 6.329493996946e+001 8.165324441033e+000 8.608306656607e+001 -2.243324367740e+000 -2.424586991471e+002 -4.771929976445e+001 2.748130586525e+001 1.440235180933e+002 7.995318719302e+000 8.193826842923e+001 -2.185960031605e+002 1.525639835598e+003
 -6.216816650583e+001 -5.149864592698e+001 -3.826745779236e+001 -1.362745873576e+001 -7.459521885756e+001 1.585034948697e+002 6.319900589922e+001 -1.259905615165e+002 7.478629870926e+001 8.026479607273e+001 7.513742770038e+001 -7.317717661167e+001 2.194731027796e+001 1.650634073186e+001 3.448632692624e+002 1.339920089908e+002 1.281170100503e+002 -2.765884300994e+002 -1.231379855996e+002 8.493720141996e+001 -1.219893650777e+002 1.361800018895e+002 -1.378066787105e+001 -6.008531578162e+001 1.115811574615e+002 1.280690163823e+001 -8.986409741914e+001 1.156931783942e+002 -3.567705555989e+002 3.099753014389e+000 1.048334458149e+002 -1.484202303750e+001 6.076652736747e+001 1.475808454246e+003
 2.775532979813e+001 1.346215470398e+002 -3.857620919675e+001 -1.706139475265e+000 -6.871687899716e+001 5.396895744131e+000 4.392118056524e+001 5.180085397907e+001 -1.906424750428e+002 -6.456025257374e+001 -4.016123060859e+001 2.431571603722e+001 -8.024058472215e+001 4.513284865633e+001 1.612038333577e+002 2.667086184874e+002 1.933449194478e+002 -2.049752119301e+002 2.350329701774e+001 -9.448141625929e+001 6.682983104453e+001 -1.502365312204e+002 3.334860517979e+001 1.796698598760e+002 -6.179481863467e+001 -9.200144899884e+001 -1.176936895649e+002 3.634755337171e+001 -1.769586962637e+001 1.164847404284e+002 6.676753445944e+001 6.619360966833e+001 -9.300683692066e+001 -2.381260805352e+000 1.979180513554e+003
 -7.206090582058e+001 5.059353048646e+001 1.244330475573e+002 9.542053127769e+001 -7.414559011277e+001 -2.111484331873e+002 -2.312701549679e+002 1.404812970636e+002 5.745495878390e+001 -5.780422097892e+001 -1.293595530290e+002 8.086286336834e+001 -2.820458425255e+001 -1.488015653695e-002 1.403519174023e+001 -1.896805276584e+002 8.830723075074e+001 1.182107148889e+002 -6.007696731044e+001 1.195877316797e+002 4.951065818599e+001 1.656552757521e+002 -5.211524462180e+001 1.108022918333e+001 -1.463709319967e+002 2.554516864010e+002 9.280373915148e+000 2.183917893983e+002 -2.182628992754e+002 4.464695488837e+002 -7.246974067669e+001 3.128332806530e+001 3.498000677815e+001 8.690075702075e+001 6.331658331950e+000 1.405218514653e+003
 4.688651363287e+002 1.285097007708e+002 -1.563706316790e+002 8.703611870855e+001 -1.152241122259e+002 -8.417269860438e+001 -2.309501046229e+001 1.279514505427e+002 -1.187500738535e+002 3.031179386135e+002 -1.701814398999e+002 -2.324817707942e+002 -1.580177580032e+002 -6.826741625000e+001 5.583026765671e+001 -5.625036969307e+001 1.826351109614e+002 7.003455928432e+001 1.243784808255e+002 -5.813692449380e+001 -8.322490816830e+001 -1.390041575589e+002 -2.585359524491e+001 4.445193092382e+001 -3.643063584883e+001 5.775528579610e+001 7.838507600940e+001 -4.103106812411e+001 -3.566885942164e+000 -8.270227900045e+001 6.016591259517e+001 -4.351610910649e+001 5.744432376505e+001 7.646215124593e+001 -1.007168030954e+002 1.121648525146e+002 1.590679294753e+003
 1.042758532652e+002 -3.596828190269e+001 -1.070898175273e+002 2.194035118727e+002 -7.060738590830e+000 -2.195089499877e+001 -1.710879975558e+002 2.702083705001e+002 1.709037280131e+002 2.755063653861e+001 1.885176066087e+002 1.490526062306e+001 6.955179089984e+001 1.563804000949e+001 -1.166112064283e+002 1.265500346241e+001 1.444851394095e+002 -2.815279843812e+002 -1.805122154981e+002 -4.591762507752e+001 -1.964869260992e+001 3.173431037676e+001 7.255910142809e+001 -7.235538305600e+001 1.549083328661e+002 2.571991607337e+002 1.161173542162e+002 -5.674080976338e+001 -1.677564332333e+000 -6.855521673652e+000 1.377597306471e+002 8.246524042584e+001 3.688618839751e+002 -9.244183140188e+001 4.566083613568e+001 2.805355157344e+001 -1.370355307040e+002 1.537646474725e+003
 -9.771186359154e+001 -3.321539900817e+001 7.204536334848e+001 3.753196215917e+001 1.281377354196e+002 1.806765820727e+002 1.915542699290e+002 9.888159565490e+001 9.648829758346e+001 -1.186208134099e+002 -1.087680236117e+002 3.514824518779e+001 1.394018042625e+002 1.071501854055e+001 9.379807541774e+001 2.478865323043e+002 -1.148572111067e+002 1.760945720302e+002 2.828040593961e+002 -1.787102077436e+002 -1.383441891702e+002 -1.771967810947e+002 -1.944417318466e+002 -1.784633782651e+002 -1.858273745020e+002 4.156767768542e+001 -3.411933297420e+001 -1.674287089335e+002 -7.399868667790e+001 8.320480651746e+001 6.315025885041e+001 2.288930621334e+002 2.447695470408e+002 -1.269689864601e+002 -1.734537890066e+000 -1.197906559217e+001 1.063346136504e+002 1.750091189333e+002 1.437293046192e+003
 -5.362811924574e+001 1.301078185413e+002 1.542224968444e+002 -6.969649533954e+000 2.154671163374e-001 -5.420698077544e+001 1.668452631225e+002 -6.097483311993e+001 1.759952028528e+002 -8.546807367842e+001 7.825336628975e+001 -8.775456953373e+001 6.927293630696e+001 8.382907783933e+001 3.074826419070e+001 1.861358396260e+001 -6.815717007546e+001 1.188148398576e+002 3.132959356250e+002 1.988965877208e+001 3.610959799155e+001 6.304704328310e+001 -9.909411125604e+001 -1.197433438765e+002 -1.274530584958e+002 2.562699428801e+002 -8.712018119766e+000 1.945429538184e+002 -8.651930952158e+001 4.486824281216e+001 3.194236108267e+001 -5.872760837656e+001 1.081043154731e+002 -7.771690690371e+001 5.074397645250e+001 -7.330109671149e+001 3.033371660678e+001 5.226759315837e+001 -2.451569665398e+002 1.750338939606e+003
 -1.754751502608e+002 3.793534199203e+001 5.821970513225e+001 -1.074973760872e+002 2.010978166606e+002 -7.304456031714e+001 -1.644367884520e+001 1.358460253515e+002 5.129408416629e+000 -9.680218767836e+001 1.175838787727e+002 -6.958956628464e+001 -2.452242380859e+002 -1.944296841212e+001 7.897944852273e+001 4.708297660485e+001 -1.648022969930e+002 -5.058285545989e+001 -5.621616743888e+001 1.122844122575e+002 1.181480873428e+000 7.622937269266e+001 -1.833438101382e+001 -1.563397214680e+002 3.637427881501e+001 -7.960008844513e+001 -1.603746522402e+001 2.313682842381e+001 3.862901078028e+001 1.414396850057e+001 -1.533812649023e+002 4.348953819490e+001 1.923941675273e+001 3.844836018854e+002 -6.712181757279e+000 -6.205718091151e+001 1.662921721933e+002 1.051210965430e+002 1.427710979529e+002 1.257562887416e+002 1.505363551895e+003
 4.859466416434e+001 -9.048612626904e+001 1.155058921442e+002 -9.795622159922e+001 1.065345025644e+001 1.155841470948e+002 9.365519674869e+001 -2.714817537956e+001 9.114597449493e+001 2.298717461857e+002 -1.600046007218e+000 1.632831170038e+002 2.099898715710e+002 -2.494290342939e+002 -2.712563357710e+002 -1.931968795442e+002 3.640186576363e+002 -4.151955661699e+001 -1.070822282905e+002 6.753313680677e-001 9.902484694521e+001 -9.114370249328e+001 1.307207942268e+002 1.089795031521e+002 -3.501400603591e+002 -7.435559386981e+001 -2.749114423644e+002 2.896306018547e+001 9.000534146607e+001 1.204200765886e+002 -1.540548018206e+002 4.853075687504e+001 -1.024470702780e+001 8.595644172864e+001 1.556486907910e+001 -1.164627498795e+002 8.399845284056e+001 2.772983236823e+001 1.935277710490e+002 1.177192467665e+002 8.485744126258e+001 1.451607669348e+003
 -4.339615313261e+001 2.097441194802e+002 -4.697212952994e+001 1.378125469657e+002 3.948676839710e+001 2.032597464375e+002 1.330517043641e+002 -1.149181592325e+002 -1.620592709741e+002 -3.707148025220e+001 1.693651719772e+002 6.952295538040e+001 3.654402346567e+001 9.379128913712e+001 2.138201278554e+002 -1.340828466837e+002 -1.402050040691e+001 -2.939549830925e+001 5.032169857951e+001 -5.391251053610e+001 1.166284589648e+002 8.047345291596e+000 -3.508047983185e+000 2.212484246312e+002 -4.133348688394e+001 5.915157867981e+001 -1.767742127901e+002 1.585628153500e+002 -1.803066170504e+001 7.660028213828e+001 -2.811798278801e-001 -5.833742074257e+001 1.988834861989e+001 -4.354318866063e+001 -1.311803738232e+002 1.145664973240e+001 8.490599275417e+001 -1.295869713414e+002 5.485894260481e+001 -8.368742955986e+001 2.588308008650e+001 7.398369666183e+001 1.513472802535e+003
 4.239174532494e+001 3.497138354739e+001 -1.434625446443e+002 3.345682715888e+002 -1.057520969552e+002 -7.575383268569e+001 -8.262959579580e-001 1.985416145690e+002 5.419494393719e+001 -1.365553429709e+002 -1.214250601658e+002 3.756184808865e+001 -6.696942193044e+001 1.673269583132e+001 6.973901192171e+001 -1.008555065450e+002 2.061723683399e+002 2.016056724065e+002 7.428008839254e+001 -1.523968974293e+002 5.637361893331e+001 -7.261807857277e+001 -1.006908837639e+000 -1.811056318371e+002 -9.834744421334e+000 2.729589980670e+001 -2.442390231048e+002 1.873115765917e+001 1.481462299403e+002 9.806364178454e+001 7.599529077033e+001 -4.124743110987e+001 2.095293342571e+002 7.045902970135e+001 -7.715040562800e+001 5.425830743220e+001 -3.049699288093e+002 -1.357758948443e+002 -1.441637692213e+002 1.788550415015e+001 3.485756758188e+001 6.389280987597e+001 -1.380388114002e+002 1.376021087247e+003
 -1.508556122455e+002 -5.928588591915e+001 1.739156160559e+002 1.553144335001e+002 1.530462399315e+002 1.106463344945e+002 -1.222857918140e+002 4.345377452640e+000 -8.530678252443e+001 7.573382180193e+001 1.106690885871e+002 -4.505614442184e+001 -2.307036465847e+001 1.013206294850e+002 2.547748307297e+001 -2.844713820108e+001 1.320154431258e+002 7.333161263092e+001 -1.114685660350e+002 1.027091368257e+002 1.485698455443e+002 9.386151058615e+001 -3.651105220594e+001 -5.309534650005e+001 -6.747589937561e+001 -1.348293057124e+001 -3.522546483743e+001 2.756658224281e+002 -1.283230439648e+002 -1.533301330560e+002 2.639945228294e+001 -5.166890152234e+001 1.021852373621e+002 -6.578068933776e+001 3.406668921637e+001 1.048338313094e+002 6.152501451366e+001 4.331903058795e+001 3.964359034682e+001 -1.614934626785e+002 -4.602347640680e+001 -7.267669940098e+001 -4.742584360513e+001 -1.377687567469e+002 1.727818268260e+003
 1.290155276888e+001 -2.085329240698e+002 1.281697365937e+002 1.397987442760e+002 -2.705623689751e+001 -2.024711954349e+002 -2.223128802671e+002 -4.592493092881e+001 9.117358993203e+001 -1.218388676443e+002 -5.883636255911e+001 -6.369603006459e+001 5.353282097775e+001 1.053571577893e+002 -2.256563234045e+001 1.019592403654e+002 8.274603061233e+001 3.607842823345e+001 7.862485444139e+001 -1.168582696178e+002 7.352783112082e+001 -5.954411860813e+001 1.456087148680e+002 3.918629771404e+001 7.843205101628e+001 -1.390687558713e+002 -5.176979454765e+001 1.660861842262e+002 1.149239537809e+002 -1.093089519225e+002 3.495544660449e+001 -2.157352119346e+001 -7.681503722465e+001 5.312296211498e+001 -4.872000692167e-001 6.728238716130e+001 -1.301345795131e+002 1.846902656685e+002 -7.038876487101e+001 -1.276364777805e+002 1.168914549500e+002 2.760309440293e+001 4.109481745163e+002 -1.154958583875e+002 -2.185415576869e+002 1.529503374489e+003
 7.625507503109e+001 2.854932005086e+001 9.807233916831e+001 1.276712993895e+002 8.346580942679e+001 -7.478022452496e+001 -5.386734116369e+001 2.256564976082e+002 -2.585962585191e+001 -2.170068013637e+001 -1.650401797712e+002 -4.651325575011e+000 3.703625415744e+001 8.259789729308e+001 7.753522167475e+001 -1.112918379872e+002 -1.474642648764e+002 2.370297393616e+000 -4.029937801284e+001 5.930444454633e+001 -1.473132053850e+002 -1.871934397159e+001 1.997815755810e+002 4.700018741075e+002 -3.462076955534e+001 6.495024970964e+001 6.168419986845e+001 1.745051114865e+001 -7.851016462331e+001 -1.279164774793e+002 1.004895785937e+002 3.228438814799e+002 2.348224310489e+002 -4.963695909839e+001 4.566547960045e+001 -3.072952694892e+002 4.815881818374e+001 1.697406988969e+001 -2.345686588832e+002 -1.042179517520e+002 1.006847588659e+002 -1.685110532002e+001 2.761539961067e+002 3.775618279070e+002 4.822428067324e+001 -2.158816469922e+002 1.204357170938e+003
 -2.278480433832e+001 1.357037848171e+002 1.475987123032e+002 9.510481122816e+001 1.416994681841e+002 -2.548110605002e+001 -2.209258814839e+002 -7.050964209735e+001 8.360315085889e+001 2.327353491255e+001 -7.847619332616e+001 1.548248214962e+002 -1.279393368648e+002 1.073844820849e+001 -8.681828303015e+001 9.637357255702e-001 -1.436313601463e+002 -3.350871415706e+001 2.293878239094e+002 3.685448731590e+001 -2.422310120392e+002 2.042290658356e+002 8.727539970828e+001 1.091547751413e+002 8.786067873061e+001 6.493613160941e+001 2.458539492066e+002 -1.144356989478e+002 1.922452499241e+002 -1.950162363474e+002 3.835851327059e+001 -1.096434951845e+002 -9.514538185024e+000 -5.082953962358e+001 1.112191600288e+002 7.842647615985e+001 -3.004202132517e+000 -2.734130995555e+002 8.982682107299e+001 -7.283641829598e+001 1.704681506897e+002 2.019502734325e+002 -2.839055675534e+002 -3.224690048920e+001 5.318871277014e+001 2.414466484170e+002 8.241585637841e+001 1.400996153205e+003
 1.829112074205e+002 2.220914275821e+002 1.555510385454e+002 5.781054945240e+001 9.591508175066e+001 -4.243535526086e+001 3.639046006695e+002 2.491742818795e+002 3.962376630616e+001 7.943980762463e+001 -5.710308310528e+001 -9.012558244608e+000 -1.836360750912e+002 7.114610817281e+001 -1.308708682782e+002 2.120197866573e+002 -1.103740849822e+002 -2.518655458930e+002 1.307531643792e+001 2.133083303117e+000 1.426343681719e+002 1.007289720745e+002 -1.458976386371e+002 5.942332664407e+000 -2.174793193020e+002 -1.186329296374e+002 1.618669898528e+000 -7.408680520883e+000 9.463162767289e+001 -2.463723665590e+001 1.387479614347e+002 8.895401654809e+001 -1.026689025563e+002 2.172429812418e+002 -9.920677078073e+001 -3.870695280103e+000 -7.795668955478e+001 -1.634560041535e+001 1.647052829365e+001 -6.421256237843e+001 -2.405250545656e+002 5.610833125936e+001 -4.467909092591e+001 1.548232497459e+002 1.323131968808e+002 1.014321786336e+002 -8.867502521909e+001 -5.626492417011e+001 1.510870504712e+003
 7.405555123069e+001 9.229497257525e+001 -5.643382840381e+001 -5.951788426789e+001 -2.271664798367e+002 3.002927234597e+001 6.311288483578e+001 -9.687744614729e+001 -1.318288715254e+001 3.200703073273e+001 -8.400241031430e+001 1.972345291066e+002 2.544823042470e+002 1.258819852881e+002 -8.559664226258e+001 1.689686763693e+002 1.805320959439e+001 4.119932276699e+001 -7.106331557253e+001 5.574551098371e+001 1.851951984676e+002 1.654396357865e+002 3.750036086857e+000 6.699699025773e+000 -1.541585239199e+002 1.156817140930e+002 9.943867466155e+001 1.113278990612e+002 2.290451327510e+002 4.437745167977e+000 -1.847966717686e+002 -1.717286482685e+001 -1.195246771247e+002 -2.641224352713e+002 8.070862449916e+001 1.834981159726e+001 1.572776246229e+002 -1.059072286339e+002 -3.263619502891e+001 -1.860629411170e+002 4.404256795195e+002 -1.440286478570e+002 -1.375449415103e+002 2.732531867559e+002 9.189339870496e+001 7.970847386936e+001 -1.268018172728e+002 -2.563591628391e+002 -8.434813572497e+001 1.277962831064e+003
 8.680659250335e+001 -4.616608286065e+001 3.811558017748e+001 1.081437829584e+002 7.655341924517e+001 5.875101472913e+001 -9.181495020831e+001 -3.285177413541e+001 2.095400345952e+002 -4.958645938387e+001 -6.231315968818e+001 -1.882103916849e+001 2.727690024654e+001 -6.833416163403e+001 2.454196889829e+002 1.222949135284e+002 1.924846267974e+002 1.919960135863e+002 6.568508441269e+001 -1.370058809515e+002 -1.372462213267e+002 5.113599770145e+001 1.427884779890e+002 1.100400911422e+002 2.554533820305e+002 7.865579195888e+001 -1.433880753698e+002 6.824996278248e+001 5.529076481223e+001 2.497553668906e+002 -1.474819778118e+002 5.180488255639e+001 -9.964264784345e+001 9.676154157970e+001 -5.479041864473e+001 -3.073655471480e+002 -2.141387492605e+001 -1.261558608121e+002 -8.584937661136e+000 1.077617994421e+002 -1.352589111741e+002 9.610921381414e+001 -1.591328440191e+002 -1.916816319968e+001 3.250961458089e+002 1.288977851178e+002 -5.057579151065e+001 -3.004307425485e+001 -1.278494971115e+002 -2.214539731423e+000 1.361220774686e+003
 1.063580202565e+002 -6.982860935841e+001 1.596620167642e+002 2.062098045236e+002 1.892777545077e+002 -5.344129378096e+000 9.728951967195e+001 8.673130727316e+001 -1.390618863233e+002 8.642642263951e+001 1.315754360567e+002 2.908960628543e+001 4.100342186424e+002 1.104556941200e+002 -1.835053482327e+002 1.407194601306e+002 9.490371529570e+001 1.915344631499e+002 -5.635748932733e+001 -1.704998344052e+002 1.043039184894e+002 -9.515084434763e+001 -1.434428262504e+002 -1.322208765184e+002 4.353281315104e+002 -1.589035256101e+002 1.182503301474e+002 -2.840090713669e+000 -1.345597408018e+002 -6.348449247961e+001 -1.397736484164e+002 1.749971325037e+001 -1.514230702995e+002 -1.477480065733e+001 7.480429799192e+001 1.416603408587e+002 -2.818469900867e+001 -1.041044050922e+002 -3.099838688901e+001 1.040235547493e+002 9.678751873722e+001 7.189763446205e+001 1.309015526181e+002 5.479327739146e+001 6.511322518899e+001 -1.289664080259e+002 6.028128649679e+001 3.250178510718e+001 -1.108287376840e+002 -1.288958451297e+002 -3.682044813328e+002 1.243410309525e+003
 -1.025579382908e+002 8.496723831501e+001 3.924826116059e+001 5.977165644890e+001 2.831045495281e+002 1.038224691599e+002 -4.493782769461e+001 1.280632121030e+002 -6.788758144835e+001 6.539498880268e+001 1.029620053067e+002 6.005915802488e+001 3.565998638439e+001 9.149476577800e+001 9.806376327893e+001 1.159245198300e+002 5.409255079072e+001 1.557664179580e+002 -1.300136662640e+002 3.389701259729e+001 2.307751364421e+001 -4.092024902017e+001 -5.730348059526e+000 1.264055496819e+002 -1.025244912907e+002 2.972042247223e+001 9.456704593324e+001 6.180526995942e+001 1.580851716520e+001 -4.230475695543e+001 -2.456305875487e+002 6.529772110820e+001 8.587309145241e+001 2.394027751668e+002 -2.420043455937e+001 -6.284448815852e+001 1.946112349572e+002 -2.760520391318e+001 1.896542174744e+001 3.801190239810e+001 -3.320632760415e+002 -6.297531535374e+001 -2.017013046463e+002 1.125745067440e+002 -1.284690107128e+002 1.925710950523e+002 -7.335970327307e+001 1.789210356950e+001 -6.873733651592e+001 6.533466778485e+001 -1.385245542010e+002 -2.260997138354e+001 1.757074700242e+003