#BIOSYM hessian 1
@Type: Hessian Update
@Units
 distance: 	A
 energy: 	Kcal/Mol
#header
@natom 19

#label
L1      L2      L3      L4      L5      L6      L7      L8      L9      L10     L11     L12     L13     L14     L15     L16     L17     L18     L19

#element
Li Li Li Li Li Li Li Li Li Li Li Li Li Li Li Li Li Li Li

#matrix
57
 2.621946278737E+04
 4.286403248135E+01 2.587632551196E+04
 -1.671350109353E+02 1.425590927807E+02 2.671416978029E+04
 -5.221309057226E+01 -7.413208868408E+00 7.576957263621E+00 1.177399503815E+04
 -3.277120411236E+01 -1.506380553565E+01 3.275674924040E+02 2.378140017770E+02 1.151007669837E+04
 8.561404321146E+01 1.439962516836E+02 -7.038607661554E+03 3.496479605885E+01 -2.441457364702E+02 1.324430266129E+04
 -1.482990892810E+03 2.459714870526E+03 -8.850085817062E+02 -1.168174175345E+03 1.705127400703E+03 4.365022269551E+02 1.270039059138E+04
 2.230613592782E+03 -3.913557323831E+03 1.288527419601E+03 1.707745780730E+03 -2.696870092818E+03 -7.003216592105E+02 -9.847162307632E+02 1.235300470539E+04
 -6.859604472774E+02 1.397900214280E+03 -3.100962845463E+02 1.107518210599E+03 -1.504102093998E+03 -1.553977752025E+03 -7.531228886938E+02 -2.014033479092E+03 1.029643289244E+04
 -2.101472855096E+03 -2.531217137348E+03 9.890938398799E+02 -1.712078241693E+03 -2.137122434039E+03 -6.244404381626E+02 -4.326354425240E+03 -1.690608673759E+02 4.718034636014E+02 1.121174684027E+04
 -2.807860567274E+03 -3.348040545167E+03 1.535439792357E+03 -2.027612456865E+03 -2.595159626009E+03 -7.236546180845E+02 7.785561483593E+02 -7.149615544065E+02 4.306551325369E+02 7.806257836030E+02 1.359252777714E+04
 1.316802581394E+03 1.439380608079E+03 -5.903138863376E+02 -1.170594241451E+03 -1.635981731050E+03 -1.508347894699E+03 -4.414758138079E+01 4.351983239879E+02 -3.479050810044E+02 -1.795686791169E+03 7.672051590357E+01 1.108548301203E+04
 -4.733376154542E+03 1.975884860147E+03 1.720742337192E+03 -3.619438079107E+03 1.512468885911E+03 -9.228386533450E+02 3.795226867866E+02 -6.960010038930E+02 4.918205714618E+02 -9.518253450177E+02 4.461537318493E+02 5.464472698710E+02 1.366922971121E+04
 1.798705035239E+03 -8.210793970766E+02 -7.153100061727E+02 1.533473920824E+03 -7.792248212390E+02 4.140096598884E+02 -1.445523738278E+02 2.728156551318E+02 -2.736826260740E+02 1.523537877529E+03 -4.011345835009E+03 -2.532897120479E+02 -3.970553617948E+02 1.142335198250E+04
 1.695138204798E+03 -6.822849160633E+02 -3.871675786590E+02 -1.809884321061E+03 8.310296265320E+02 -1.598581916174E+03 -2.507503793284E+02 4.290999895107E+02 -1.044977378582E+02 1.838116642164E+02 4.682797337134E+02 -3.456669619915E+02 -5.140697541827E+02 1.722514571995E+03 1.107676638506E+04
 -8.959325422266E+01 -3.747147420250E+02 -9.332709220687E+01 -9.579549334582E+01 -4.054336439315E+02 1.969375142588E+02 -6.706195981209E+01 6.721305414355E+01 1.058960374380E+01 -1.363780077895E+01 6.404810754230E+01 5.971914061671E+01 -3.088533512898E+03 -1.979930139483E+03 8.117513761603E+01 1.157866221946E+04
 -5.816214798045E+02 -5.320894681604E+03 -1.775121865439E+03 -3.194356118865E+02 -4.054237236657E+03 7.947819538932E+02 -4.489125552232E+02 7.403927965467E+02 -4.421895873671E+02 5.857708238001E+02 6.135397412284E+02 -5.168421449377E+02 -1.024026931873E+03 -1.609378244831E+03 -5.894425011593E+02 -7.586705265477E+02 1.349437628218E+04
 -2.358942544699E+02 -1.761885515442E+03 -5.579333404009E+02 1.354914573682E+02 1.909626126219E+03 -1.514911798865E+03 -2.679290563604E+02 4.122411430022E+02 -3.218942414621E+02 4.059980058209E+02 4.539063311837E+02 -2.869306335204E+02 4.439696439801E+02 -1.692080890724E+02 -4.894763909138E+02 1.891492676656E+03 1.057904702890E+03 1.047609683045E+04
 -4.897116561599E+03 -9.520050621889E+02 -1.770907479591E+03 -4.063391357250E+03 -1.097485976697E+03 8.563266330112E+02 -1.074230059365E+03 -7.336206520077E+02 -6.433814137138E+02 5.833996630178E+02 6.981589166503E+02 -5.297495189583E+02 6.802327609867E+02 -3.283542425773E+02 -7.062118136308E+02 -2.695870169923E+03 1.300970814013E+03 -6.952426155819E+02 1.262624404090E+04
 -1.207991231985E+03 -2.778021792603E+02 -4.982941166334E+02 -1.007799604978E+03 -3.156499035161E+02 2.501908010814E+02 -1.681903342218E+03 -4.056987206873E+03 -3.234300267996E+02 3.940543567513E+01 3.562584961311E+01 -1.252108165316E+02 1.873020583782E+02 -5.924323848562E+01 -1.527971790405E+02 2.324878835474E+03 -2.288768468454E+03 4.516768537130E+01 1.131791731005E+03 1.209263644480E+04
 -1.966030104606E+03 -2.511671560419E+02 -5.871851189576E+02 1.843831673005E+03 5.496757976329E+02 -1.443478922473E+03 -4.386662798259E+02 3.450238849407E+02 -2.835495311289E+02 3.045511693563E+02 5.252553608200E+02 -2.791321996958E+02 5.137279995167E+02 -2.525292795278E+02 -2.211761527587E+02 -1.460802980485E+02 -4.303734349636E+02 -4.109976060902E+02 1.484779511096E+03 -9.897859402900E+02 1.112612489385E+04
 -4.324183536614E+02 -1.346676938253E+03 -4.950511779695E+02 -2.483465425676E+01 -1.326564303318E+02 2.679005793761E+02 -2.809744847966E+03 -8.806135104161E+02 -1.958508263085E+03 -1.163007394604E+03 5.162403394601E+02 2.668171777308E+03 -3.524651006879E+02 3.628308469953E+02 2.447443327062E+02 2.233857116903E+01 3.931370439599E+02 1.396045336277E+02 2.443709687430E+02 1.090202881389E+02 1.773696798834E+02 1.275400644846E+04
 -1.220198880741E+03 -3.856630182725E+03 -1.413771831030E+03 -1.537941486986E+02 -3.136921090915E+02 7.071390662041E+02 8.868755082192E+01 -9.523550303677E+02 1.822866655486E+02 3.451415277703E+02 -1.631367834818E+03 -1.845224125666E+03 -8.543308493364E+02 9.147133218830E+00 4.361514551620E+02 -2.606072131784E+01 1.072695528771E+03 5.061833211422E+02 8.997906723916E+02 1.179183189336E+02 5.341378430273E+02 2.135422675685E+02 1.331456364350E+04
 -3.339402195187E+02 -1.194624555664E+03 -4.025823253107E+02 -1.577324339143E+02 -2.817425104448E+02 -2.830606683691E+02 -2.076544143459E+03 -3.245313705443E+02 -1.614040429565E+03 2.522382635862E+03 -2.215918938087E+03 -6.078199126729E+03 2.926585975149E+01 -9.232609199070E+01 -9.360933994056E+01 -5.492833863887E+01 3.855498143065E+00 1.576562315225E+01 -5.376344167150E+01 -2.366929369476E+01 -3.127599969332E+01 -2.754244017758E+03 8.574334821370E+02 1.628374011836E+04
 -4.497253381172E+03 -1.035566330531E+02 -1.450312972627E+03 -4.059084606699E+02 2.922861375162E+01 6.844301264904E+02 4.526552939271E+02 -8.361502603372E+02 5.363651605858E+02 -1.511367577150E+03 4.137268265705E+02 -5.235741603190E+02 -1.216695345698E+03 -5.374332363373E+02 -8.002789460780E+02 -1.833477878316E+02 9.554335487734E+02 4.636461968044E+02 1.033064602242E+03 2.597425609231E+02 6.091471554005E+02 -1.455064977628E+03 4.363028601345E+02 1.015841691747E+02 1.354225664738E+04
 5.052431993907E+01 -3.018500230790E+01 -4.690301930066E+01 7.173128440325E+01 -5.581826441749E+00 -2.041864315390E+01 -1.180974554350E+01 -9.118521351947E+00 -5.208852175126E+01 1.493204683840E+03 -2.254591637807E+03 1.845910124983E+03 -7.012863918564E+02 -1.926069032498E+03 -3.600952486427E+03 -3.081982729944E+02 -1.819366911515E+02 -6.318015615141E+01 -5.349649416269E+01 -3.704503635287E+00 -4.085204513342E+01 1.522557785606E+03 -2.191812176277E+03 -3.548563453168E+01 -3.465754794425E+01 1.318661434121E+04
 -1.224405906959E+03 -5.314377246673E+01 -3.990142338054E+02 -3.327726913180E+02 7.843696411328E+01 -2.939045766036E+02 7.828586523538E+00 6.015490894089E+01 -2.809490394884E-01 -1.157824307213E+03 1.843947625098E+03 -1.675619936787E+03 -1.245352791781E+03 -3.471214011226E+03 -5.800233311684E+03 -8.798401765016E+01 -6.976111932935E+01 -4.788661331598E+01 -6.822804555630E+01 2.046730136340E+01 -8.906758504705E+00 -3.755875036008E-01 -6.938337763283E+01 -1.850441704297E+01 7.908576416897E+01 3.474566998421E+03 1.641955185047E+04
 -4.658683848552E+02 1.320265091307E+03 -4.376944230140E+02 -1.114718831366E+01 1.035325536433E+02 2.535039897398E+02 1.551727402692E+02 -2.574059762840E+02 1.670127271810E+02 -2.654278654842E+02 -2.168343279997E+02 1.769441850906E+02 -1.635294836167E+03 -1.478209973237E+03 1.754562910989E+03 -2.459990129329E+03 4.155657253109E+02 -3.630111889817E+03 1.253064893913E+01 2.925728930374E+02 9.029883326176E+01 -9.700310054330E+01 -3.501941775810E+02 -2.045650729401E+01 -1.429519553566E+03 -1.477536575350E+03 4.560447110691E+01 1.278328581963E+04
 1.392549740671E+03 -3.917730692551E+03 1.401017382207E+03 1.424200304523E+02 -3.099994894847E+02 -7.142136763904E+02 -5.789133752864E+02 9.043476487649E+02 -4.133887928086E+02 5.436767785632E+02 7.112855445640E+02 -4.951018275154E+02 -5.183375344681E+02 -2.201285754065E+03 1.209325415850E+03 2.224644379855E+02 -1.020951205676E+03 -2.945639012954E+02 -9.630465483550E+02 -3.178199175116E+02 -4.928577060712E+02 3.703600842243E+02 1.036582487782E+03 -2.898869956146E+01 -3.661857439582E+02 -2.170964760210E+03 -3.734559200381E+01 -2.263567613354E+02 1.329786219530E+04
 -4.754063305852E+02 1.160366158137E+03 -3.724348626222E+02 -1.043801874957E+02 3.033194188361E+02 -2.124311431479E+02 1.464161304358E+01 -4.660745210666E+01 6.437178530260E+01 -3.742382563749E+01 1.930006684110E+01 9.824326756981E+00 1.407523708279E+03 1.619783061863E+03 -1.631547916871E+03 -3.793067930542E+03 1.549204150708E+02 -5.533773756900E+03 -1.335863469561E+02 7.052226308364E+01 2.698425190821E+01 1.713434988958E+01 -9.047151108309E+00 6.510166885589E+00 -6.782154123804E+01 -2.000623462615E+01 7.470478526497E+00 2.952953501848E+03 9.685654794095E+02 1.611174261461E+04
 -3.055978814133E+03 -2.117779543357E+03 1.229270823473E+03 -2.483731381302E+02 -1.502134506574E+02 -6.855233577134E+02 -4.724622267748E+02 7.810333966611E+02 -4.357634588414E+02 5.577243640277E+02 7.962590021903E+02 -4.987203005172E+02 7.321773754253E+02 -3.551923447255E+02 -4.854484360661E+02 -2.591876015032E+03 2.239761785119E+02 1.410385586566E+03 -9.750610007515E+02 3.044916648486E+01 -1.069108164044E+03 2.888254250686E+02 9.259443150313E+02 -4.493736531657E+01 9.531299909347E+02 -2.512881198482E+01 3.728082871738E+00 -2.314234373855E+03 -4.894349055266E+01 -3.055701427253E+01 1.307284598181E+04
 -1.953895960849E+03 -1.346237444375E+03 7.604605447245E+02 -1.956101231577E+02 -6.301919538447E+01 -4.002150648988E+02 -5.258675189248E+02 6.331524404315E+01 -1.776159652601E+02 3.041955865420E+02 4.783155577364E+02 -3.256413431575E+02 5.344591042565E+02 -2.826090878522E+02 -2.952598561422E+02 1.314683347357E+03 -1.220981098513E+03 -1.319182979008E+03 -1.957194613871E+02 -2.048457781004E+03 3.171911430004E+03 2.145264001213E+02 6.402945488479E+02 -3.005719638410E+01 6.654813501696E+02 -2.141938442821E+01 7.226966949911E+00 1.107236821929E+03 -9.942485228744E+02 -2.618707151165E+01 1.802785380388E+02 1.353598797313E+04
 9.314653018162E+02 6.972067279192E+02 -3.678479073882E+02 2.887194880135E+02 1.322269807495E+02 -2.337954567718E+02 2.278113016155E+01 8.957371781806E+01 -2.216073252561E+01 3.315618465471E+01 -1.537818304317E+01 8.600100974229E+00 4.466766201554E+01 -4.426302385489E+01 2.757179933267E+01 1.972407020388E+03 -9.655855336850E+02 -1.638002730396E+03 -6.369421492582E+02 3.395466713631E+03 -5.829599898672E+03 1.963753871261E+01 -1.018740906414E+00 1.207124219825E+01 3.264067672851E+01 -7.590754864435E+00 2.574328163662E+01 2.108462840759E+00 7.130143558488E+01 -2.231247957202E+00 1.596689456313E+03 -2.477963551226E+03 1.635399622730E+04
 -2.848986659349E+03 2.009300600799E+03 1.222485181839E+03 -2.010416830087E+02 2.380657484733E+02 -6.220980535165E+02 -1.994722220703E+03 -5.480029451665E+02 2.618430913234E+03 8.419890061278E+01 6.983502872508E+02 -3.509245696813E+02 8.354501775568E+02 -3.782307716259E+02 -3.989339672286E+02 -7.276331317967E+01 -8.185846726804E+02 -5.178684729841E+02 -9.782800453360E+02 -4.786089907221E+02 -7.659942315382E+02 -2.413800079934E+03 4.638828002598E+01 -4.692324819111E+00 9.378711955364E+02 -6.105414853441E+01 1.100633467452E+01 3.197324953752E+02 -8.392217836639E+02 6.873779865315E+01 -8.417391942576E+02 -5.844204129948E+02 -4.819519217874E+01 1.311958944606E+04
 2.077314061418E+03 -1.474068464987E+03 -8.429594968173E+02 1.791096422484E+02 -1.627144637623E+02 4.503478355195E+02 -7.684111291761E+02 -1.431698478314E+03 2.528848914103E+03 -4.577563032149E+02 -4.873324351858E+02 3.643795758788E+02 -6.489005091592E+02 2.906512248092E+02 2.704285482538E+02 2.127395932729E+01 5.471044193442E+02 3.387779657223E+02 5.143424099660E+02 -2.708847078281E+03 -1.944173403461E+03 -1.105672906513E+03 -9.964199280006E+02 -2.279299578496E+01 -6.570359962113E+02 3.013331511438E+01 -4.239852519985E+00 -2.514589245785E+02 6.094153994102E+02 -5.040444896359E+01 5.125340891918E+02 -3.359208727153E+03 -6.712676871001E+01 -1.431415966813E+02 1.364213267571E+04
 1.072249884392E+03 -6.908459903627E+02 -4.124617171332E+02 2.427620601452E+02 -2.360531801661E+02 -2.556279531088E+02 2.903480462596E+03 2.379658523368E+03 -5.522762473858E+03 2.038389418075E+02 2.026668820771E+01 -2.525531257227E+01 -3.282105920658E+01 3.710380698733E+01 -6.907168482205E+01 -4.669734548022E+01 -1.750877065253E+01 3.183022941148E+01 -7.997956522973E+01 -2.295365467179E+03 -2.053149940336E+03 -3.359698133620E+01 3.266970371658E+01 1.157536495083E+01 -3.802467435696E+01 2.142132508783E+01 5.888447814980E+00 -3.501510652817E+01 -4.029511965299E+01 7.727766433810E-02 6.139062964851E+01 -7.020741177217E+01 -1.912922891046E+01 -1.754273645010E+03 -2.572205641193E+03 1.635424696163E+04
 1.527973464787E+01 -8.194560998327E+01 1.316803883680E+02 -3.153899039351E+00 2.122113754786E+00 1.678743806871E+01 -1.824043903697E+02 2.742134841480E+02 -3.029264471216E+02 -2.754500324073E+02 -3.332285373679E+02 3.567714139567E+02 -5.833567062464E+02 2.186645198301E+02 6.109119272513E+02 4.697843572273E+01 -8.391256241022E+01 -2.663090057871E+01 -5.451539049972E+02 -2.191295749972E+02 -5.061897134299E+02 -4.807709255201E+02 -1.420773074031E+03 4.599610810928E+02 -4.430083001283E+03 -4.653142208010E+00 1.248132728251E+03 -4.248625808550E+02 1.204260578126E+03 3.498295741762E+02 -2.957852317158E+03 -2.075904719365E+03 -1.125720041817E+03 -2.930241774439E+03 1.989875454741E+03 -9.430270819189E+02 2.623856534155E+04
 1.026872630521E+02 4.810959707847E+01 -8.465047529023E+01 1.974197783657E+01 1.592004574710E+01 4.403030333603E+01 3.830161340352E+02 -5.077303621601E+02 4.842678743853E+02 -3.255408780840E+02 -4.168793883480E+02 4.990731747347E+02 2.681389608088E+02 -6.443597933913E+01 -1.998866599863E+02 7.589871122857E+00 -6.945000643152E+02 -5.705389295321E+02 -1.114721011322E+02 -5.411820184657E+00 -1.710426288499E+02 -1.369584485510E+03 -3.984789729947E+03 1.103006925306E+03 7.334576676159E+01 -9.198664085238E+00 -7.012697562942E+01 1.394729197277E+03 -3.825872812457E+03 -1.143465181328E+03 -1.927926621905E+03 -1.362892161850E+03 -6.793613325970E+02 2.177452492420E+03 -1.488047599074E+03 7.359957054696E+02 -3.152435785392E+01 2.584029361911E+04
 1.734081642598E+02 -1.175555534508E+02 -1.075082613764E+04 4.923218464959E+01 -1.069267993328E+02 -7.319388573896E+02 -4.091577471008E+02 6.945644359827E+02 -7.522912318719E+02 5.661513469738E+02 5.414829314473E+02 -7.218452932748E+02 7.258862570866E+02 -2.562590767047E+02 -8.568145767461E+02 -3.737695983605E+01 -8.178328038093E+02 -6.672784209860E+02 -7.594399219963E+02 -1.627674287994E+02 -7.939404815880E+02 4.387251653534E+02 1.349308442890E+03 -3.603665337663E+02 1.441729649018E+03 1.246264636580E+01 -4.022794420977E+02 4.952292084789E+02 -1.435669083262E+03 -3.918150820269E+02 -1.262555894476E+03 -8.348325857621E+02 -4.219645210794E+02 -1.202550200614E+03 8.129443045691E+02 -3.699809508847E+02 -1.102910930605E+02 1.077251113225E+02 2.670482460783E+04
 -1.940187033875E+01 2.388345690142E+01 7.295771858412E+01 -3.233785935291E+01 7.634177764531E+01 3.287984013140E+01 -1.981253079764E+00 -1.345463929911E+01 -2.434286874503E+01 -1.134067675833E+02 5.153096925925E+00 -6.460314901059E+00 -3.384846590194E+01 -1.987814635496E+01 2.247017133520E+02 1.181388994989E+01 3.963633457211E+01 2.870008167630E+00 -3.844238027323E+01 4.757500433275E+01 2.851739670489E+01 -5.719550025345E+00 -1.467675667155E+02 7.093538545975E+01 -4.027821129242E+02 -1.157153692792E+02 3.285173794592E+02 -7.917636490356E+00 2.046705586369E+02 2.088464498456E+02 -2.010478148297E+02 -1.486103195498E+02 -2.466372341555E+02 -2.080308464759E+02 1.582404636731E+02 -2.975432351134E+02 -1.394861378461E+00 1.670425809246E+00 -1.445033888858E+02 1.175660424356E+04
 -3.621563305485E+00 2.582507039871E+01 -6.668317339507E+01 -5.874059626276E+01 -6.494437901632E+01 5.243266798009E+01 -2.679550057272E+01 -9.044232016663E+01 2.978420271996E+00 -1.964258980245E+01 7.178285758311E+00 1.106037650132E+02 -1.876342288054E+01 2.675353728028E+01 -2.479251542241E+01 -3.909079970280E+01 -7.373333699973E+01 -9.596138242556E+01 2.547336425527E+01 -7.960936845323E+00 -6.550019371240E+01 -1.046397363077E+02 -3.685042090818E+02 2.980307688817E+02 -2.036297419276E+01 2.148683897620E+01 1.828794277692E+01 1.355485540724E+02 -3.350790521168E+02 -2.718435021804E+02 -2.044879919449E+02 -1.275318810652E+02 -2.037798996640E+02 1.437936019027E+02 -7.646913967681E+01 1.443370457287E+02 4.860367773656E+01 -4.363116007221E+01 3.464240184040E+02 -2.070922754757E+02 1.156276477141E+04
 -5.217766604338E+01 1.526941025653E+00 -7.222239690994E+02 -2.976207525681E+01 7.126199847391E+01 8.381584374785E+02 5.565318038447E+02 -7.790117984995E+02 5.567452956423E+02 -6.033294543196E+02 -8.015746482761E+02 4.541737360378E+02 -8.336993909528E+02 2.834499259254E+02 5.923810759842E+02 -5.359419198935E+01 1.019221920146E+03 5.015333505528E+02 9.138704285051E+02 2.316177677944E+02 5.083618394240E+02 -2.215488553469E+02 -6.934463391499E+02 -2.231858070685E+02 -6.687340581836E+02 2.290871165635E+01 -2.425917315821E+02 -2.865115372023E+02 7.339878825966E+02 -2.933986383057E+02 6.443298224148E+02 4.612863898853E+02 -2.671162207444E+02 6.661129721931E+02 -4.023638723900E+02 -2.581767397412E+02 -5.551819303628E+01 1.006477381099E+02 -7.048889363268E+03 -7.064273266435E+00 -2.818889265770E+02 1.327024388199E+04
 -5.914462362905E+02 -3.642349030461E+02 -8.223272765039E+02 -5.026240911372E+01 -7.701778851891E+00 8.692192152843E+02 3.879698218272E+02 -6.652236955202E+02 3.993539669580E+02 -5.405035975876E+02 -7.879550593919E+02 1.864158508651E+02 -7.615567699758E+02 3.914178118397E+02 4.894722396936E+02 -3.323044035020E+01 9.961043809532E+02 5.812617006151E+02 9.010570828528E+02 2.390676044693E+02 4.834664261719E+02 -1.715711175014E+03 6.110747286213E+02 -1.456627430696E+03 -1.186573428530E+03 7.006921102216E+02 1.156669549311E+03 -3.796665922416E+02 8.676327447479E+02 -4.720576995465E+01 8.515322985994E+02 6.282448327257E+02 1.961671938711E+01 7.083946203550E+02 -5.150083823441E+02 -1.526889351222E+01 -4.785032854995E+03 -1.975434131104E+03 -1.612366249231E+03 -3.663770725908E+03 -1.493551166506E+03 8.868483318685E+02 1.384053980799E+04
 -2.399396654979E+02 -8.120338578395E+01 -2.808012535383E+02 -3.648575166783E+01 1.435153351843E+01 2.715482022586E+02 1.693963413199E+02 -3.074777182352E+02 2.287981533343E+02 -7.596537023459E+01 -3.360973117475E+02 5.296337156802E+02 -2.970113813316E+02 -2.427445481805E+01 9.455252345022E+01 -1.273188713707E+02 3.507787814541E+02 1.577684023527E+02 2.563774428940E+02 3.632917771480E+01 1.955908904327E+02 1.539733004655E+03 -2.132390420391E+03 1.641752202796E+03 4.726500631954E+02 -2.040705029535E+03 -3.483704773787E+03 -3.846542862432E+02 3.442377491936E+01 -9.449618079981E+01 2.987634593738E+02 2.358995260556E+02 -6.639170643493E+00 3.243781454463E+02 -2.510606134487E+02 -5.563416880537E+01 -1.733756207509E+03 -7.760936653608E+02 -6.464916648219E+02 -1.503892682643E+03 -7.335363781405E+02 4.465890113755E+02 3.123589075916E+02 1.139532278525E+04
 -5.962922164287E+02 -2.537552154490E+02 -7.913518792677E+02 -1.419554931788E+02 -6.687295131583E+01 5.874515724939E+02 2.741923872656E+02 -4.443896307901E+02 1.694182088267E+02 -5.742388569099E+02 -1.447551537526E+02 -4.039469146627E+02 -6.499257227650E+02 1.176628446095E+02 -1.624586350451E+02 -6.768562323991E+01 5.458606568104E+02 3.054824370775E+02 6.347739787341E+02 1.571734891391E+02 2.651294419504E+02 -1.685905942843E+03 1.088869978334E+03 -1.645945131965E+03 6.904559653793E+02 -3.461729871209E+03 -5.834859208182E+03 -2.673908220314E+02 3.669552392698E+02 -8.640261988465E+01 4.846989318211E+02 3.170787374975E+02 -8.227166964454E-01 4.472103612519E+02 -3.106113522096E+02 1.854085822534E+01 -1.576917794249E+03 -7.202114103271E+02 -4.029137448893E+02 1.811961706994E+03 7.804848505068E+02 -1.655473906268E+03 5.766074570982E+02 1.858441997220E+03 1.077147265161E+04
 3.029790447704E+00 3.128467184163E+01 7.993380079840E+01 -1.827244264030E+01 5.005433066563E+01 6.082467552629E+01 -1.120281254084E+02 -1.463749534763E+02 -4.193914672035E+02 -4.446406099570E+01 6.257978123558E+01 1.829179417868E+02 1.647822542217E+01 9.030744438685E+01 1.295747685944E+02 1.458218162735E+01 4.407248207762E+01 7.880584089305E-01 -7.500774806701E+01 4.333742544589E+01 8.508907822734E+01 -2.280390660355E+03 -2.641718031006E+02 3.695031426050E+03 -1.915339102481E+02 2.344451801178E+02 9.853257461404E+01 1.308585579438E+01 7.329673576340E+01 7.361781347827E+01 -9.022071057314E+01 -1.324618168235E+01 1.702152701847E+01 -2.577958086319E+03 -1.212024985218E+03 -2.022155380474E+03 -1.153900763518E+01 2.061698204965E+02 7.551305086675E+00 -3.685758136708E+01 3.503461330768E+02 -1.569049853558E+02 -3.222386798209E+03 1.992359586460E+03 8.685647811677E+01 1.153437258095E+04
 3.599056212121E+01 -7.189129452700E+02 -8.211315876836E+02 -3.566806839909E+01 -8.377546364896E+01 9.872725285570E+02 5.565322016859E+02 -7.656962486835E+02 4.020934563919E+02 -5.459916555384E+02 -7.337679910114E+02 5.612854380836E+02 -9.881436865029E+02 4.070414433132E+02 4.988907341131E+02 -4.486658779502E+01 1.022904899819E+03 5.726971565803E+02 9.529240960822E+02 1.521401907705E+02 4.923614789158E+02 -4.130137185488E+02 -1.025932299201E+03 2.590632457438E+02 -9.134278837131E+02 -1.331190152709E+02 -9.053495172939E+01 -4.251572101324E+02 1.018868240388E+03 -3.202655679570E+01 8.162503478626E+02 5.232706195850E+02 -3.858050151380E+01 -1.624541807130E+02 -1.118484075440E+03 -8.756214063962E+02 4.716114422642E+02 -5.231842939188E+03 -1.768338765566E+03 2.209868644553E+02 -4.154813568396E+03 7.871165636018E+02 1.109498214007E+03 -1.585199571805E+03 -6.393819776977E+02 8.308399346593E+02 1.326950937620E+04
 -2.356946104169E+01 -6.028004206196E+02 -7.168992674731E+02 -7.271016429280E+01 -9.591536439599E+01 5.245317112999E+02 -1.483922867882E+02 -6.043151410887E+02 -4.944628735218E+02 -1.528338578647E+02 -6.095575831101E+02 -2.901676238268E+01 -5.555724055366E+02 2.149306780786E+02 2.533218384440E+02 -2.966044835495E+01 5.932873027159E+02 2.843428691176E+02 5.072703828810E+02 1.037949183754E+02 3.017937800786E+02 3.524166856134E+03 -1.843675398208E+02 -5.633431256495E+03 -5.009460381863E+02 -6.605413585295E+01 -2.277686557002E+01 -1.900536058830E+02 5.526560993432E+02 -2.677701692073E+01 4.848818229494E+02 3.155658285901E+02 -1.567696768862E+01 -1.456264605658E+03 -1.268396853257E+03 -1.695824617933E+03 2.375863462363E+02 -1.889739115555E+03 -5.759754983192E+02 -9.167468826936E+01 1.875465063677E+03 -1.460241915319E+03 -3.718372784952E+02 -3.158574911266E+02 -3.670014691352E+02 -1.825668953668E+03 1.138858563009E+03 1.057584261330E+04
 -2.503880436636E+02 2.726179541164E+02 -5.153348605553E+02 -4.794900547245E+01 3.355391936773E+01 5.851745589796E+02 3.210748063603E+02 -5.077249203367E+02 3.019416578184E+02 -4.537623159210E+02 -4.422552832121E+02 3.032145353802E+02 -6.022553527155E+02 8.206006039616E+01 6.460320189429E+02 -3.555564147714E+01 6.332820619734E+02 1.297509008827E+02 6.183133122936E+02 2.273235450527E+02 3.402765228496E+02 -2.434549691241E+02 -6.106926132550E+02 -4.820687278878E+00 -1.504924986992E+03 -1.381138386256E+03 1.186577997377E+03 -1.186891487621E+03 -3.896093212839E+02 -2.507869659275E+03 1.960202332328E+02 5.076134255908E+02 -1.658839027648E+02 5.807403265281E+02 -3.474617897380E+02 -5.178119713840E+01 -2.150916273559E+03 2.511536965259E+03 -1.068248085802E+03 -1.729938391993E+03 2.078364245676E+03 6.368635356357E+02 -9.278650130138E+02 -1.444816700051E+03 -3.456318817856E+02 -4.059031648716E+00 -6.225572473962E+02 -3.647460043760E+02 1.108194542696E+04
 3.838380809520E+02 -3.957444490431E+02 5.678789029413E+02 9.658733144467E+00 -3.902921965142E+01 -7.645966955803E+02 -4.672096394461E+02 6.710786094603E+02 -4.701196274364E+02 4.736668724646E+02 5.588850726302E+02 -3.873341335088E+02 7.216605338254E+02 -2.797182222454E+02 -2.473634879417E+02 -7.926974232617E+01 -7.646805106227E+02 -5.805100687195E+02 -7.941652030557E+02 -1.144504589282E+02 -5.395768164735E+02 1.979131676500E+02 6.804777820204E+02 5.738021346786E+01 -4.346879679526E+02 -2.176765006716E+03 1.796006594025E+03 -5.617991429352E+02 -1.729591452464E+03 -2.292828082955E+03 -7.340137944074E+02 -4.935347981447E+02 6.500314405893E+00 -7.875285969232E+02 5.018697872773E+02 2.115289300665E+01 2.759960165218E+03 -3.321256424969E+03 1.508873536196E+03 2.010377218575E+03 -2.550984176305E+03 -7.884956357865E+02 -5.158828019790E+02 -4.014080908183E+03 5.533494864580E+02 -2.697588478554E+01 6.038522910149E+02 4.977440205605E+02 -7.921783456806E+02 1.354425725314E+04
 -3.551452169785E+02 4.229353921338E+02 -8.172813474980E+02 1.525378224852E+01 4.490950946062E+01 4.690342396257E+02 3.415650390136E+02 -4.190263794482E+02 1.787750373203E+02 -1.880241329593E+02 -4.376042851747E+02 2.603146944114E+02 -2.370011872653E+02 6.515256393294E+02 -6.199703347339E+02 -1.890267840686E+02 5.521811467327E+02 6.577649427965E+01 6.149637061398E+02 1.667745764694E+02 1.938289129763E+02 -1.776900734245E+02 -5.227239470734E+02 3.475725227856E+01 4.907347214231E+02 1.948057447018E+03 -1.722802375139E+03 -2.784460319755E+03 -1.988314559161E+03 -6.099232488192E+03 3.541167979806E+02 3.479213573697E+02 -5.172547205772E+01 4.211406432215E+02 -2.830470917514E+02 6.059477183314E+01 -1.384823189477E+03 1.448545971822E+03 -5.429564903628E+02 1.089119556667E+03 -1.614025375851E+03 -1.534744302630E+03 -4.862234053882E+02 -1.990437722068E+02 -2.749101499761E+02 -8.955956681841E+01 -4.926489841373E+02 -2.861797298755E+02 1.841579045465E+03 1.210691460561E+02 1.125875049445E+04
 -1.851350577139E+02 -3.926069124876E+02 4.408688905026E+02 -4.752914215087E+00 3.830375621619E+01 -6.101323362577E+02 -2.329359053432E+02 5.869704748173E+02 -3.111483974733E+02 3.383492769877E+02 4.956625010376E+02 -3.560752927272E+02 4.387378515165E+02 -1.919511861251E+02 -3.378604253892E+02 -1.409731919564E+02 -5.878711233333E+02 1.568883180524E+02 -5.275811612385E+02 -5.775348494582E+01 -4.647895897296E+02 1.697351060846E+02 6.034310292775E+02 -3.763615465075E+01 4.854448894841E+02 2.987332603469E+00 -1.847150353792E+01 -2.825348921578E+03 -9.256465646855E+01 2.062422105640E+03 -1.953932977454E+03 7.542651034516E+02 -2.852224257711E+03 -4.799140956266E+02 5.358401285252E+02 -1.481002362834E+01 -1.592233591788E+03 -2.493270457794E+03 9.323028968613E+02 -1.257748379677E+03 -1.754289345712E+03 -4.421889880689E+02 4.291103856430E+02 1.653764884862E+02 2.469616663000E+02 -7.964376127945E+01 4.550603769139E+02 3.271490444843E+02 -4.201186708040E+03 -7.463917673577E+02 8.935359102055E+01 1.270773971391E+04
 -2.808731476090E+02 -4.340191295867E+02 6.737120178686E+02 -1.181687609673E+01 -3.778971296435E+01 -8.050968338534E+02 -5.501172245759E+02 6.495664926731E+02 -3.832790641228E+02 4.424935806650E+02 6.736109231233E+02 -4.414382620886E+02 7.396211511224E+02 -4.170215408863E+02 -3.296239574010E+02 1.403396756237E+02 -7.690917130207E+02 -6.814903293037E+02 -8.534983506796E+02 -1.999475766719E+02 -3.842049212855E+02 2.501770371042E+02 9.104190145776E+02 -4.297444185130E+01 8.745937294189E+02 -6.488089353866E+01 3.442193836795E+01 9.757695394253E+02 -9.470448501723E+02 -3.134732537594E+02 5.112957157432E+02 -1.432624307268E+03 2.420853497181E+03 -7.188216027004E+02 4.904350277270E+01 7.262851069990E+01 -2.313420719392E+03 -3.836984324475E+03 1.309825434182E+03 -1.727756208848E+03 -2.661415719918E+03 -6.806703700515E+02 7.060863430351E+02 2.866933016977E+02 3.992367167947E+02 -6.431051584597E+01 7.063367811754E+02 4.202630007592E+02 2.496984252671E+02 -7.331480733082E+02 3.912619776648E+02 1.002510471826E+03 1.235104771058E+04
 3.267620294931E+02 4.517585950205E+02 -6.847149532938E+02 7.932504858528E+01 3.283325595545E+01 4.815315099978E+02 2.855516606496E+02 -4.288698385098E+02 1.679009109623E+02 -2.919264983379E+02 -4.281551263588E+02 2.457397693302E+02 -3.940909831919E+02 1.810683122103E+02 2.787119542649E+02 4.712250152702E+02 4.170461360262E+02 -5.463726258935E+02 4.368863002981E+02 3.783602195329E+02 -4.357258752475E+01 -1.169911752328E+02 -4.541128620152E+02 1.660314410809E+01 -4.722339591121E+02 3.309251562393E+01 -7.447875790361E+00 1.917629015021E+03 1.417760853297E+02 -1.524607128592E+03 -2.508985596605E+03 2.566699113499E+03 -5.493623187536E+03 4.518706948199E+02 -1.975694931293E+02 -5.126787016798E+01 7.415897356695E+02 1.349887989291E+03 -3.932496637965E+02 -1.151915866346E+03 -1.578285222918E+03 -1.524523963999E+03 -4.289981816051E+02 -1.171320936231E+02 -2.633204678647E+02 -1.569480080610E+01 -4.861353838633E+02 -2.616516751844E+02 -5.871038156162E+02 4.085872751956E+02 -3.575346231899E+02 7.379519143146E+02 -2.007474573518E+03 1.025878808146E+04