#BIOSYM hessian 1
@Type: Hessian Update
@Units
 distance: 	A
 energy: 	Kcal/Mol
#header
@natom 19

#label
L1      L2      L3      L4      L5      L6      L7      L8      L9      L10     L11     L12     L13     L14     L15     L16     L17     L18     L19

#element
Li Li Li Li Li Li Li Li Li Li Li Li Li Li Li Li Li Li Li

#matrix
57
 3.420910523140E+01
 1.385725246342E+00 1.630251577742E+01
 -1.485529125613E+00 -4.201987964660E-01 1.844640007293E+01
 4.206260164898E+00 2.370832311858E+00 2.716478735831E+00 2.159798621874E+01
 6.698812640329E+00 -3.406897192962E+00 1.383587331218E+00 1.301906816232E+00 1.160968981708E+01
 3.195369645425E-01 -5.063339984989E-01 -3.537091028125E+00 -8.149224479543E+00 1.130130620521E+00 1.028404663978E+01
 1.117768334109E+00 7.832902839919E-01 -2.850274312332E+00 1.091799653466E+00 -6.930131690944E-02 -1.863236193865E+00 5.689597153632E+00
 -4.603263803236E-01 -1.012866366953E+00 -4.298541191388E-01 4.981818097674E-01 9.574785601959E-01 -4.967538210588E-01 1.212664303116E-01 2.163553708448E+00
 -1.320867144711E+00 -1.010949470854E+00 1.583852881345E-02 8.184498695553E-01 7.249881268199E-01 -4.495130566796E-01 -4.721603374261E-01 5.647342291954E-01 2.429538233067E+00
 -2.160736554569E+00 2.747913290196E-01 -1.212238147362E+00 1.994868896996E-01 -2.099775258189E+00 -1.431272060381E+00 -3.230455864082E-01 -4.568111475665E-01 8.991062884786E-02 3.549118302980E+00
 -1.577376580917E+00 -1.603264395375E+00 1.222527603260E+00 -3.144602311441E+00 -2.514119881526E+00 2.634981191930E+00 -1.613343518470E+00 8.858660376338E-01 3.795188481914E-01 -1.418274295682E+00 1.083466637039E+01
 -3.102750643345E+00 1.096026014184E+00 1.618139789767E+00 -2.618691872405E+00 6.174416060037E-01 3.025433133104E+00 -2.961091484408E+00 2.242334862270E-01 -1.472434218815E+00 -1.918314517376E+00 -1.248450785479E+00 8.900747834560E+00
 5.705406347854E+00 7.219408485131E+00 -4.776416219038E+00 3.032607239481E+00 1.545689859533E+00 2.114671121907E+00 1.379597860927E+00 -5.372658374444E-01 4.321431483915E-01 3.357909154951E-01 -1.664567860886E+00 -2.279986564930E+00 1.590040033950E+01
 1.072180713854E+00 1.750195607647E+00 1.451902550646E+00 2.106838645675E+00 -2.246864013515E+00 -3.719538909647E-01 -9.024416852462E-01 7.174392268620E-02 1.913057786697E-01 -1.129120414934E-01 1.044255475258E+00 2.775850051849E-01 1.411456750233E+00 3.356774793333E+00
 -2.255241061178E+00 7.849682274503E-01 -1.476112276821E+00 -2.754561412147E+00 -1.205597020568E+00 2.612403030036E+00 -1.733023222189E+00 2.793636867062E-01 4.151332077738E-01 1.930527553563E-01 2.015978667494E+00 1.282135267478E+00 3.337228577110E+00 1.277530158230E+00 4.096627092335E+00
 -6.329550376377E+00 4.729070003220E+00 2.256322402241E+00 -5.802941619595E-01 -5.835571777876E-01 6.691999355648E-01 1.362227455422E-01 -1.482141535420E-01 1.436127452457E+00 -1.723188797164E-01 1.635497175806E+00 -7.166581290367E-01 -3.835310303290E-01 -6.659246801483E-02 -5.572038626229E-01 1.333097736828E+01
 1.020147903643E+01 -8.278562592164E+00 -9.193979334605E-01 -5.942947990413E-01 3.603546472501E+00 5.488376078029E-01 8.280987673573E-01 7.705922686079E-01 -6.796348150754E-01 -4.548046179742E-02 -2.319127135941E+00 -6.211221834587E-01 -6.032917083593E-01 1.258286905299E+00 3.602069971741E-01 -9.250885323282E+00 1.934275585408E+01
 1.882501294601E-01 1.699972808118E+00 2.223912531552E+00 1.857624743109E+00 3.257267520797E+00 2.815620720803E-01 2.204295116594E-01 1.001227216975E+00 -1.277605501194E+00 2.481995645053E-01 -1.148230494003E+00 1.215861271184E+00 -2.441893763252E-02 -5.117612878592E-01 -1.095027032854E+00 1.318174773662E+00 2.353038322915E+00 9.957841303780E+00
 -3.780885177561E+00 -2.343287599622E+00 5.562324142332E+00 -2.264091915527E+00 -1.001990566824E+00 -8.930176351059E-01 -1.083080414042E+00 1.346536377115E+00 1.149678361968E+00 7.367722731707E-01 2.805280718819E+00 -9.265682116098E-01 -1.172522721091E+00 1.521222984255E+00 1.619975363857E+00 -1.430689537420E+00 2.506393021688E+00 1.079116478298E+00 1.124590648656E+01
 -3.157867615256E+00 6.257962951821E-01 4.320872764311E+00 -2.031772798643E+00 -1.033491808487E+00 -1.092790029279E+00 -2.423913162070E-01 4.147038724578E-01 -1.480010835868E-01 2.433985188994E-01 2.610514189549E+00 -1.149230004047E+00 -1.006906484833E+00 -8.716998489638E-01 -1.541834160426E-01 -1.608566344949E+00 -4.774871955366E+00 6.102491245067E-01 6.913555944617E+00 1.114312305172E+01
 7.735031158193E+00 1.553772298134E+00 -1.125024758867E+00 2.763443709365E+00 1.257886094305E+00 -1.649761910971E+00 2.024129855648E+00 -2.072474566124E+00 1.427993302198E-01 2.680653976261E-01 -4.652374008221E+00 -3.211619634263E+00 3.337298439734E+00 -1.157104534677E-01 -2.045691242245E+00 2.861079345826E-01 1.050984621088E+00 -3.639618350894E+00 -5.239836095138E+00 -3.908868103888E+00 9.457090173397E+00
 3.034200147269E+00 -3.898405316411E-01 -5.843692412989E-01 -2.131926502126E+00 -2.371902880805E-01 1.350482830205E+00 -2.833921604717E+00 -1.237470132555E-01 -6.924221290036E-01 2.606194900900E-01 9.078314891737E-01 2.416555840405E+00 -9.072537907380E-01 4.723259485287E-01 8.178945252215E-01 -5.106769071714E-01 -9.309438997452E-02 -5.832972238503E-01 -8.635422388648E-01 -2.468370128665E-01 -7.146733720036E-01 5.448645256564E+00
 3.861205072339E-01 2.720790691167E+00 1.659611498996E-03 4.311635955023E-01 -1.593971562320E+00 -5.728019266844E-02 -1.573230528798E+00 -5.345047379580E-01 -1.250110384728E+00 6.332706479935E-01 -1.247171787271E+00 1.796578932714E+00 -1.522383055688E-01 5.883783704292E-01 -3.596529748706E-02 4.294374579192E-01 2.784369742278E-01 2.261379554276E+00 -1.615731135084E+00 -2.707753207651E+00 -2.152110249044E-01 1.164633284116E-01 5.305571292178E+00
 3.090132964056E+00 -7.656755445985E-02 -1.036159557382E+00 7.249414779373E-01 8.902647784564E-01 -1.227880908647E+00 6.369592162777E-01 7.733417473409E-01 -1.035079924621E+00 -5.684785158761E-01 6.779241533054E-01 1.519298623682E+00 -2.842567068849E-01 -2.754726682443E-01 -5.268741682008E-01 -4.490983360386E-01 -4.436800258242E-01 -4.275383327343E-01 -1.321918754417E+00 3.023562025100E-01 -3.006484949516E-01 3.592966384417E+00 -2.088563630600E+00 6.588136256445E+00
 1.179112243152E+00 -7.232925121042E-01 -1.816818318221E+00 1.009109146077E+00 1.309927025652E+00 1.222500297296E+00 1.015425089032E+00 -1.367639240334E-01 1.269669963172E-01 -9.625828168790E-01 2.186332848367E+00 -9.498471361125E-01 2.771861513471E-01 -2.878402878658E-01 -7.774907583961E-01 -6.274166758428E-01 1.357509794108E+00 -1.672698657454E-01 -1.818243639215E+00 -5.765411881922E-01 2.342758707930E+00 -5.072689857726E-02 -1.218292359264E+00 1.407426642587E+00 2.223430200968E+01
 -6.698630920414E-01 -5.763386395562E-01 -3.462770064307E+00 1.139704609848E+00 4.497560817794E+00 -1.343360455808E-01 2.081346518427E+00 -2.270437963600E-01 4.325640820088E-01 4.823741168367E-01 -6.259441829878E+00 1.009818560613E+00 1.874311381640E+00 -2.522347406466E+00 -2.360497012758E+00 2.454960310341E-01 -6.837734402190E-01 -4.181521885084E-01 -1.744669179588E+00 -8.689411823745E-01 1.907457663508E+00 -9.946365294502E-01 -1.746346818570E+00 6.642219923131E-01 4.723176253296E-01 1.892078427050E+01
 4.076454453628E+00 -1.833127172375E+00 -5.593068194346E-01 2.607341292872E-01 5.257988632700E-01 1.667985840665E+00 1.795539323664E+00 -8.839153007795E-01 -7.061094852163E-01 -7.847911408605E-01 1.760360076166E+00 -2.892268110957E+00 1.921642664121E+00 -3.273740551498E+00 -1.512702452982E+00 -1.207417100715E+00 -3.054269915448E-01 4.581973294896E-01 -1.647357705402E+00 1.935493353038E+00 9.324321482769E-01 -3.455868763021E-01 1.762076419634E-01 -2.538685905354E-01 -7.475121443125E+00 -1.911143989105E-01 2.102493483566E+01
 -1.838783388304E+00 9.202684501008E-01 2.209981784789E+00 3.595477379801E-01 -2.187944520223E+00 4.792252784183E-02 -2.466858954958E+00 2.767762907634E-01 7.269191217834E-01 3.900020107278E-01 3.202943314973E+00 1.202752188373E+00 -1.637115790506E+00 1.399351780443E+00 1.432475472927E+00 6.256036667992E-01 -3.176291986918E+00 -1.677134372793E+00 1.808905155816E+00 1.575192068541E+00 -2.595057334790E+00 1.690187785650E+00 -3.595775178841E-01 -6.854649812826E-02 -6.716600454855E+00 1.442533995865E-01 2.174508090734E+00 7.893209402103E+00
 -2.414983287885E+00 9.079850871764E-01 7.426953318663E-01 1.501651639415E+00 -3.952747733715E-01 -3.949102057128E-01 -1.283716855270E+00 -3.204158234692E-01 3.322861245572E-01 1.789744403787E-01 -3.454096766401E+00 1.468524214116E+00 1.264232083985E+00 4.005831867304E-01 2.854635615991E-01 -7.568167964316E-01 -6.257733799888E-01 -9.514306868734E-01 5.182143039958E-01 4.639923048777E-01 -1.361046141515E-01 1.100574063677E-01 1.611080026487E+00 -7.335086850385E-01 3.510016557093E+00 -1.438392438142E+00 -3.181692309804E+00 -4.212305497515E+00 1.265902114174E+01
 -8.115493931246E-01 1.024388837850E+00 1.500740666026E+00 3.263190580771E+00 3.664015852656E-01 -2.016945992335E+00 -1.056385789342E+00 2.885569349120E-01 4.324449770309E-01 2.604027490979E-02 2.245737732628E-01 -3.009234351933E-01 -2.577373283261E-02 1.434499060120E-01 2.084926706721E-01 -5.091112911822E-01 -2.262638495444E+00 -1.966682806982E+00 -2.094870516347E-01 4.484357628019E-01 5.895754001046E-01 -2.247262394825E-01 -3.315228770235E-02 4.933829309213E-01 3.746624692555E+00 -3.789195460963E+00 -4.490388460042E+00 -1.962111549740E+00 5.141804703252E+00 6.683670184841E+00
 -1.067270823458E+01 -2.600377600971E+00 -1.032391485437E+00 -8.945410870788E+00 -4.311189171110E+00 5.430358399455E+00 -2.355625894491E+00 -3.950794256498E-01 8.334206456233E-01 4.002656173768E-01 3.481314511274E+00 3.792160272394E+00 -1.650667693661E+00 3.622837331661E-02 3.929662909780E+00 -2.399496320652E-01 -1.394052942053E+00 -4.238582399679E+00 2.700685619102E+00 1.024225909530E+00 -3.980902860611E+00 2.054850382855E+00 -1.446837700177E+00 -4.498216138628E-01 5.779332968175E-01 -1.516354075782E+00 6.077851936455E-01 3.237867460854E+00 1.882880719320E+00 -6.939576523339E-01 1.476822169936E+01
 -1.453745017085E+00 1.639012851471E+00 5.611816828508E-01 -3.144881578640E-01 -1.280864540191E+00 -2.514449310329E-01 1.154112431491E-01 -4.344538389641E-01 1.622187051723E+00 5.957860694320E-01 1.152713296566E+00 -1.570186107491E+00 -6.119814571322E-02 -4.892140092115E-02 4.332686351377E-01 9.499900099915E-01 -4.855529582130E+00 -4.258065926349E+00 4.525798430034E-01 1.804202303717E+00 1.635867138582E+00 -2.579866108637E-01 -2.413543023859E+00 -7.342288450835E-01 -2.654677286921E+00 -1.192637400075E+00 1.220413953559E+00 4.008869134664E+00 -2.925456629193E+00 9.268759029015E-01 3.192845567863E+00 7.553709155434E+00
 2.537792825406E+00 5.714840874355E+00 -1.114201934683E+00 2.813120850820E+00 -2.879486337762E+00 -3.870737672078E+00 1.582156825787E+00 -3.318722048557E-01 7.074858847899E-03 6.870455961509E-01 -3.978724076107E+00 -5.907854563280E-01 1.617274489947E+00 3.384257382848E+00 -9.821768182179E-01 9.702393426181E-01 1.219612129692E-01 -2.096254738410E+00 -1.641478587014E+00 -3.799712074747E+00 4.637255448370E+00 -8.256449218416E-01 1.234881240531E+00 -1.442608557540E-01 7.430934788812E-01 1.719096706407E+00 -1.058534447981E+01 -5.571991261711E-01 -1.450888149411E+00 5.960347725593E-01 -4.736345529075E+00 8.045811611140E-01 1.406231896903E+01
 -5.335208498941E+00 1.232937553950E+00 1.776872522954E-01 -2.286212952372E+00 -2.657401483372E+00 6.906461174326E-01 -2.211666037908E-01 -8.314950619608E-01 -4.778623898411E-01 1.261322178518E+00 -1.119001272178E+00 9.956474250452E-02 -2.759716910132E-01 -2.910601296486E-01 9.043732473113E-01 -5.055093187884E-02 -8.962123334422E-01 7.635454760124E-01 2.534490134503E-01 -1.389090290979E-01 -6.224619537248E-01 -7.839270404013E-01 1.598722744427E+00 -2.270861375518E+00 -4.856196290854E+00 -4.462238082713E+00 2.302014145487E+00 2.934797064826E-04 8.563317447045E-01 2.668552105056E-01 2.202233040642E+00 1.150353023535E+00 -1.229520820659E+00 5.840741450186E+00
 -3.081418896502E+00 -1.645988966082E+00 -1.279025086661E-01 -1.800239119934E+00 -7.330830203145E-01 -6.332358729025E-01 6.868989201099E-01 -8.941827414098E-02 -1.691031916248E+00 1.913208186694E+00 9.465421348893E-01 -8.923961187642E-02 -3.227238739081E+00 -1.660127667450E+00 -1.400777510896E-01 -2.320193125598E+00 4.976669666755E-01 1.656693261013E+00 -8.902102611325E-01 5.768823139114E-01 -6.347482811116E-01 1.418947014568E+00 -1.926090783721E+00 2.851722204332E+00 -3.249848941232E+00 -3.114719315466E+00 1.917466034710E+00 1.567318527284E+00 -8.771919439466E+00 -1.274916389076E+00 -9.817643431012E-02 2.909711438407E+00 -4.863768964572E-01 3.660461218181E+00 1.572080131308E+01
 -2.676556238455E+00 -2.701295283388E-01 -1.331862113522E+00 7.250163872116E-01 3.217992661919E-02 2.044201789766E+00 -1.065592472459E+00 -5.366962660709E-01 5.337350531356E-01 7.628341933144E-02 -8.514226894591E-01 6.156142815164E-01 -1.028356162938E+00 -5.121704403869E-01 4.583844498996E-01 -1.342457166644E+00 1.133046080319E+00 1.560931638125E+00 -5.108251764762E-01 -9.403256730675E-01 -8.037185422039E-01 -3.843263798035E+00 2.027772368716E+00 -6.107789398685E+00 2.551846294281E+00 3.726161833397E+00 -2.191600637109E+00 4.767549750571E-02 -9.660093893612E-01 -1.185138796893E+00 -3.276522153799E-01 -1.172021257356E+00 -3.582486395978E-02 2.589258507915E-01 -2.333336394816E+00 1.174906012178E+01
 5.294551304652E+00 1.531512318234E+00 -6.795375505081E+00 -1.634988960436E+01 1.870132575719E+00 8.324069702691E+00 -1.651737824828E+00 -3.429759692307E-01 -2.731429994714E-01 -1.595622270087E-01 -1.209526841946E+00 7.630367246374E-01 6.348615302398E-01 -1.464598874094E+00 1.682257365658E+00 6.846393161459E-01 -4.515161802761E-01 9.337755534781E-02 -1.288870084415E+00 -1.435945474991E+00 4.416780763062E-01 1.301734902613E+00 2.172687595768E+00 -2.895362626569E+00 1.351527453493E+00 1.980432342696E+00 -4.514415405342E+00 -3.435821128833E+00 9.690443775630E-01 -7.184809298530E-01 -6.265225921120E-01 -1.450364584829E+00 2.268961658608E+00 7.315577183221E-01 -2.081907791980E+00 3.519522836298E+00 3.221604544245E+01
 -3.387916183287E+00 -8.296832476082E-01 5.262921106977E-01 -1.148795210689E+00 3.495011706886E+00 -1.000599283084E+00 -1.409147585996E+00 2.086191771549E-01 7.927220437026E-01 -4.114173213217E-01 -1.641111608162E-01 6.743642838319E-01 -1.079540972944E+00 9.381097453336E-01 1.681697302771E+00 1.074452561380E+00 -1.240796250864E-01 5.850814756667E-01 8.435689756087E-01 -2.781387926742E-01 -7.253502461208E-01 1.003782092725E+00 -2.819398373565E-01 -2.190297805860E-01 -2.904991564713E+00 -1.653895786273E+00 -2.416708827597E+00 1.882308460731E+00 -1.306796805323E+00 -5.382092297966E-01 5.876486110752E-01 7.820887561672E-01 5.515870482696E-01 9.717605395063E-01 7.313977028775E-01 9.819679868080E-01 -3.019980228335E-02 1.860314932068E+01
 -7.090409045946E-01 -3.989380747829E+00 1.970325439257E+00 5.954384954452E+00 1.263860200351E-01 -4.035285465194E-01 -1.396355454715E+00 7.610081867219E-01 1.557257727840E+00 -1.853651196344E-01 7.663933099364E-01 -8.173946795466E-01 1.924177184111E-01 8.158657331565E-01 1.597309969393E-01 -9.273179528015E-01 3.576834917961E-01 -3.303769679146E-01 1.630902015116E+00 5.541466741826E-01 -1.021684799977E+00 -5.890907067625E-01 -1.414404005964E+00 -2.731976873946E-01 4.224706240211E-01 3.772745882450E-01 8.336383279161E-01 1.043208900131E+00 -6.654982425389E-01 5.880096857418E-01 -1.536831074978E+00 5.010631457842E-01 -8.869760021428E-01 -2.207904272060E+00 -2.213064639623E-01 -2.644126483415E-01 -1.425242611198E+00 -5.769503482353E+00 1.282019421755E+01
 1.510465734015E+00 2.553795161458E+00 1.700658083468E+00 2.138528102076E+00 7.546619611495E-01 1.553796624933E+00 1.028137334638E+00 -9.606000273703E-02 -1.618275911207E+00 -3.107318242822E+00 5.919715138252E-01 3.512958464002E+00 -7.251856881840E-01 4.931426294079E-01 -1.647348160497E+00 2.056412208641E-01 -1.134284314873E+00 -1.196580855425E-01 -2.213739231201E+00 -1.684937085762E+00 -7.162177223384E-01 -9.937833235739E-01 2.480500284414E-01 9.044964744687E-01 -4.904075383955E+00 3.357076623440E+00 1.013156320656E+00 1.458958508252E+00 -3.243632228334E-01 -6.954737827357E-02 -1.837284599776E+00 -9.551830162062E-01 1.581905504922E+00 2.095103209427E-02 -7.359201688113E-01 3.816898264582E-01 -2.754172511572E+00 -3.098191118778E+00 -2.651825976218E+00 1.366593800521E+01
 1.566002116986E+00 -7.798642258455E-01 -2.478151761912E+00 1.894359811936E+00 -1.169794373384E+00 -2.589359539248E+00 5.917036814284E-01 6.447354142266E-01 1.111551843186E+00 -3.450281687344E-02 -1.230292899517E+00 7.463131152948E-01 -3.739883038137E-01 7.227974212666E-01 -5.797558012860E-01 -2.132893389908E+00 9.564601902361E-01 7.080949753569E-01 5.522254836692E-01 -9.097345918584E-01 -5.926944178297E-01 1.375648519989E-01 5.377379695904E-03 5.085185524910E-01 2.673853180885E-01 -2.599431084309E+00 -1.194666151021E+00 2.722125227826E-01 1.096481667076E+00 -2.849994263484E-01 1.089851051658E+00 3.162679067043E-01 1.076939754106E+00 1.174121757210E+00 -2.087674568623E-01 -4.051068070208E-01 -1.697386444296E+00 -2.939279272343E+00 -3.246884998271E-01 -1.950280289299E-01 1.896137718229E+01
 -1.249825214232E-01 -1.831462082955E+00 -2.970697789714E+00 1.449620329483E+00 -6.904804212113E+00 -5.012426857369E+00 -6.739611815059E-02 -7.570812906157E-01 -1.855821590922E-01 4.458397425589E+00 1.142697558065E+00 -5.434524514806E+00 -3.939286682999E+00 9.073449418681E-01 -1.211636524366E+00 -1.977147881422E+00 -2.495956301883E-01 -2.092285694628E+00 -1.681314658497E+00 -3.447733935504E-01 1.786381205099E-01 2.624707081448E+00 -1.285970622517E-01 8.713274212454E-01 -2.825233932186E+00 -1.113909704272E+00 -2.625699158257E+00 3.554456586853E+00 -5.967573540084E-01 8.421013681315E-01 -4.559600652424E-01 5.433693585813E-01 3.430098190761E+00 1.261617533105E+00 2.817693151620E+00 -5.249943725623E-01 -1.813149589505E+00 -1.753249785722E+00 -1.633867967056E+00 7.114281404717E-02 5.784507830340E+00 2.554806637086E+01
 -1.960889332825E+00 -2.389746875371E-01 1.131826583498E+00 2.067050173436E+00 -2.671516648059E-01 -3.530271141579E+00 -7.935104647470E-01 2.226116102231E-01 -5.657507493740E-01 1.556370452469E-01 -1.497777132045E+00 1.429633607469E+00 1.394730351490E-01 8.151631237756E-02 1.469360710525E+00 -8.899123281397E-01 1.265008371746E+00 2.229590218706E+00 1.741778529685E-01 7.929477505167E-01 -1.178842264985E+00 -5.026776634538E-01 1.703037403864E+00 -4.587784775914E-01 -7.441789375570E+00 -4.249018734613E+00 1.340993052995E+00 1.534598618348E+00 -1.889644488663E+00 -1.018349753581E+00 -1.322314104793E+00 -1.515836373899E+00 -6.454007482206E-01 1.949983204288E+00 1.656674846474E+00 1.501330083583E+00 -8.946547234996E+00 9.012100828915E+00 -3.383397055695E+00 -2.204518951938E+00 1.666302417638E-02 1.332346178207E+00 1.767597262619E+01
 3.113499938143E+00 -1.098882844197E+00 -9.467415566851E-01 6.217856362133E-02 -5.623750391838E+00 3.211194072931E+00 -6.760751264102E-01 -1.344657458138E+00 -8.337268849393E-01 6.228620747892E-01 -3.079726036643E-01 -4.460219030365E-02 -3.538607206242E+00 5.645723861741E-01 -2.565971269435E-01 9.919283684752E-01 -7.701854455018E-02 -2.862168402607E+00 -1.910983190797E+00 1.993670746126E-01 1.016990452599E+00 1.484441121032E+00 -1.161931052586E+00 -1.493785877182E-02 -2.297599170321E+00 -2.140074056842E+00 6.554357248363E-01 1.458822798022E-01 1.188093763994E+00 -1.094566608265E+00 3.833192296838E-01 1.101807278542E-01 -5.304998955611E-01 -2.755255755481E-01 -5.938120064831E-01 6.062906968381E-01 1.876014527592E+00 -5.273873023028E+00 3.782974477429E+00 1.652613095953E-01 -8.418916415535E+00 1.084000752356E+00 -2.229997210150E+00 2.354314982017E+01
 1.841692336727E+00 -2.014880525198E+00 2.518007790561E+00 -5.983952455752E+00 4.749275788654E+00 1.841027632417E+00 -8.774275615633E-01 -4.404390886335E-01 4.903883493168E-02 -8.765142284055E-01 2.313641326903E+00 -1.465018459279E-01 1.972207565714E+00 -1.503702335571E+00 9.764237041685E-01 1.179227512204E+00 -5.787809685607E-01 -1.963888229940E+00 4.400622540003E-01 1.895699420358E+00 1.291370355532E+00 1.885925710756E-01 -1.718302099514E+00 3.309375455898E-01 -5.373032683123E-02 -2.432549056363E-01 1.446935578743E-01 -1.657814890959E-01 -9.647315322291E-01 6.341585644905E-01 1.727933534931E+00 1.049536360478E+00 -2.991113099455E+00 -9.413419634945E-01 -2.858412074470E-01 -1.970897658189E+00 -1.498613279170E+00 2.317353953961E+00 -4.490803127108E+00 1.464168627680E-02 -2.661298255297E+00 -3.013276408723E+00 3.356011886162E+00 -4.884960373441E+00 1.292690918172E+01
 -1.571650972049E+01 -5.494049129270E-01 1.496647415360E+00 -1.328651949355E+00 -1.530663525689E+00 -1.033177795863E+00 8.431728103372E-01 4.984475233334E-01 3.916602242929E-02 5.765447984529E-01 -2.298331266759E+00 1.628535199599E+00 -2.330542585440E+00 -1.313801906598E+00 3.138599907865E-01 -1.612412464797E+00 2.267255145520E-01 1.893510494240E+00 2.439956590169E+00 2.678638830791E+00 -3.327590050473E+00 -3.339007666914E+00 -1.533656333288E+00 -1.610655076253E+00 -7.690519113131E-01 2.896106519421E+00 -1.493847909680E+00 -8.878820317445E-01 8.653553367317E-01 2.649074133502E-01 2.647063341838E+00 -9.075755785943E-01 -9.447085017679E-01 2.726582950249E+00 3.591662854270E+00 3.103313494310E+00 -2.818992493642E+00 -3.619087121495E-01 1.379114795984E+00 1.000209924703E+00 -1.051001375589E+00 -3.159362496534E-01 1.959969129533E+00 -2.212868227887E+00 -2.290611149541E+00 1.481891275040E+01
 3.058463699500E+00 -1.074234493887E+00 -1.192010735844E-01 8.975709030878E-01 -4.930153481883E-01 -1.736058520064E+00 -1.218781648180E+00 -3.928048345068E-01 -5.956855457189E-01 7.023728402757E-01 2.806813363401E+00 -1.330849294203E+00 2.351133652138E+00 -2.292843837656E-01 1.216897898222E+00 9.409809848283E-01 -1.043678095928E+00 -2.461929894426E+00 -4.169303588055E-01 -1.734308885015E+00 4.646420391642E-02 7.842592216164E-02 6.958783361426E-01 1.255046299699E+00 -1.558565366599E+00 -3.549197680655E-01 -4.844902759901E-02 -6.552945089335E-01 -5.555894835760E-01 1.493895193106E+00 -2.376357712725E+00 -1.595663778994E+00 -1.252112135257E+00 -1.245920212949E+00 1.443934921451E-01 -1.078739409842E+00 1.416226532480E+00 -3.430034375320E+00 6.220305351261E-01 1.290557390124E-01 -1.052098989203E+00 -6.498139110951E-01 -1.228304301576E+00 1.748025575811E+00 2.748101196066E+00 -3.879154982104E+00 1.471441788337E+01
 -3.579510461774E+00 3.797716684586E+00 1.918779013032E+00 -2.604751794480E+00 -1.443041662557E+00 -2.371036059833E+00 1.014660987361E+00 2.923025076425E-01 -3.302480465731E-01 4.233648037193E-01 -5.567469728224E-01 -5.724049206955E-01 1.388501204168E-01 1.584052210831E-01 1.967206062256E-01 9.689050156656E-01 4.557477233982E-01 5.896775920887E-01 -6.779243385691E-01 3.382289396187E-01 5.219842647004E-01 -2.318500097897E-01 -7.857190935747E-01 1.133935022513E+00 1.587960416079E+00 -8.090660799741E-01 -8.244485458574E-01 -1.290328731107E+00 1.338180887583E+00 -4.421172087530E-01 1.059317127958E-01 -1.252466551353E+00 4.290769564348E-01 5.608967864134E-01 5.281216595486E-01 -9.287027030545E-01 4.831244005670E-01 2.411153329884E+00 -5.390599206891E+00 -1.240347611127E+00 -1.208517519885E+00 -3.112022286039E-01 -2.932632780510E-01 5.739122215967E-01 -1.987533216802E-01 4.710702396689E+00 2.094035535594E+00 1.408256682779E+01
 1.093893245954E+00 -1.583580519916E+00 3.601936561418E+00 2.231350228923E+00 2.165077442430E+00 -1.539064355725E+00 -1.891651599315E+00 8.671597822411E-01 4.741042023527E-01 5.874094626310E-01 -3.735757589519E-01 8.598287557682E-01 -2.293320399915E+00 -8.111647733827E-01 -9.520699197810E-01 -1.989879839849E+00 9.341200254751E-01 1.103057487472E+00 1.689947309777E+00 2.300777453623E+00 -6.931653711891E-01 1.738897664049E-01 1.067883595911E-01 -1.178858807072E-01 -7.160202732517E-01 -5.594492887718E-01 1.400007909532E+00 1.552272133235E+00 -1.452740678054E+00 3.026043212908E-01 -7.122629310527E-01 1.865228473011E+00 -1.927001957220E+00 -7.169203019572E-01 2.204477166134E+00 -6.027175575052E-01 -4.399978497910E+00 -3.089049780785E+00 3.518331149414E+00 -2.327259598641E+00 -3.819117200336E-01 -3.588085396219E+00 -1.858642767503E-02 -2.194329112808E-01 1.684882187175E+00 8.906163545751E-02 -3.657532674932E-01 -1.453152369129E+00 7.595781019998E+00
 1.389876467590E+00 3.551027604446E+00 -1.075962735484E-01 -1.026064342338E+00 -3.494300056936E+00 3.880993612344E-01 5.103998706895E-01 -4.434844682829E-01 -1.049932616983E+00 1.895817315738E-01 5.611783198656E-01 -2.609323438306E-01 8.885922684367E-01 4.268626756666E-01 -1.060966348309E+00 -5.954931939621E-02 1.539267613917E-01 -1.322894202943E-01 -2.919410389349E+00 -1.324408729387E+00 1.900271818170E+00 -7.539142632365E-01 3.197645175064E+00 -1.524006035474E+00 1.809160487067E+00 -1.319494216964E+00 1.315693937754E+00 1.993566706825E-01 -7.389039503869E-01 -4.950678295546E-01 -4.342334026560E-01 -8.947052291684E-02 3.040539643923E+00 -3.959978583981E-01 -1.648840428855E+00 -4.386447292490E-01 -2.061941444930E+00 -8.790629271300E+00 2.020086653531E+00 6.836450959803E-01 -8.402541110749E-01 2.486752023544E+00 -7.613612117991E-01 -1.216727241409E+00 1.795237448495E+00 1.603792321958E-01 -3.254571229742E+00 -2.353738935411E+00 3.205407688068E+00 1.545172117937E+01
 2.384438948735E+00 -3.522720971503E+00 -5.662937662757E-01 -5.000206103789E-02 3.150379712677E+00 9.244719917896E-01 1.600030977629E+00 -3.583388468961E-01 3.415767839050E-01 -1.872703984162E-01 -2.088008156105E+00 -3.859274247658E-01 -3.826810571010E-01 -2.965145621124E-01 -6.122599821996E-01 -1.338494348410E-01 1.465754058293E+00 1.198355168243E+00 2.670094498067E+00 9.325897526161E-01 -3.223728528923E-01 -8.123583629189E-01 -1.440850700660E+00 -1.049814503410E+00 -2.354079973260E+00 1.006181295009E+00 6.555222829758E-01 -7.697549980571E-01 -3.747628472770E-01 -2.483877710185E+00 2.215174937122E-01 1.081838122438E+00 -1.444447214975E+00 5.949602960621E-01 -3.060819371345E-01 -4.497768563534E-01 2.941187857240E-01 2.820014498687E+00 -3.886127741547E-01 -1.197965799443E+00 3.469175506530E+00 -4.954252781184E+00 -1.064402689498E+00 6.795880824779E-01 5.176941894988E-01 -3.842339619655E+00 -2.467213956573E-01 -3.668478769834E+00 3.478174164728E-01 -6.057978941194E+00 1.120497778147E+01
 -6.646792211090E+00 -1.123315740398E+01 9.654135711950E+00 -3.659185214321E+00 6.482207467378E-01 -4.208723651343E+00 -8.751093000477E-01 -4.771090249911E-01 -1.437167132605E-01 -1.136261285492E+00 3.651429506147E-01 1.045512044248E+00 -1.790667462242E+01 -2.717094585968E+00 -5.480316971631E+00 2.534090286275E+00 1.128205611518E+00 -1.826528070985E+00 7.495256693039E-01 -2.909139198639E-01 1.401208817372E-01 -2.582469495905E-01 2.992568823128E-01 -2.766265623652E-01 8.388997365734E-01 -1.342437355630E-01 3.596736648563E-02 -8.804919618812E-01 -3.198962768854E-01 2.037872199350E-01 4.537192083811E-01 -8.622847172452E-01 -1.976573105089E+00 -3.525585688769E-01 1.307600339762E+00 -1.151598894126E-01 -1.588832389367E+00 2.476289899228E+00 -5.844546335261E-01 3.104427491123E-01 -1.901980734588E+00 9.389881009476E-01 -3.801379089853E-01 1.763239790481E+00 1.006709243648E+00 1.801286372801E+00 -4.476851020287E-03 8.354871039351E-01 2.035989133932E+00 -1.582029154771E+00 1.013767412719E+00 2.776228713743E+01
 -6.698374165546E+00 -5.331110901260E+00 8.160853367700E+00 -2.874310977531E+00 -1.140265408107E+00 -1.567705921999E-01 3.844773943484E-01 -2.410601344355E+00 -1.341667567913E-01 -6.462665122503E-01 -1.896422665789E+00 -4.175603414376E-01 -3.384717315487E+00 -1.417109169480E+00 -1.839933483664E+00 1.035866636176E+00 -1.547583415218E+00 -1.730527700715E+00 1.298187409432E-01 1.059823863408E+00 3.064182364311E+00 -1.105024782381E+00 -6.276106398356E-01 -1.800185373143E+00 2.765482506633E+00 2.063634383335E+00 2.932316810521E+00 -2.374269122611E+00 1.998440603583E+00 -5.026457952688E-01 2.346000789580E+00 -9.693217008612E-01 -1.638473201704E+00 1.567532028569E+00 -2.004575844844E-01 6.255907450836E-01 5.592591474249E-01 -9.318778947328E-01 1.358456601902E+00 -3.136454546975E-01 -1.798111009860E+00 7.751330064602E-01 -1.246823866046E+00 1.055813707415E-01 -1.545888371920E-01 4.010713135911E+00 -2.265031038127E+00 -1.584743392483E-01 -2.706943056317E+00 -6.838765721210E-01 -6.369405578137E-01 1.110353276350E+01 1.864638120954E+01
 3.035666002112E+00 3.895308476980E+00 -4.033175619591E+00 -8.926410636246E-02 -2.837819647139E+00 -2.713357198320E+00 3.483538266219E+00 1.058467094231E+00 -5.667682181438E-01 -5.473214850782E-02 -3.349769100734E-01 -1.168179402671E+00 -2.101496956101E-01 -6.130356898263E-01 -4.681228034348E-01 -1.953107193383E+00 -3.242615230320E-01 -6.426603719861E-01 6.002248483106E-01 3.220957033291E-01 -1.870679930056E+00 -1.075248179037E+00 1.246726049003E+00 2.876631627142E-01 -1.530099071992E+00 5.394781261384E-01 2.730165287462E-01 -9.961293317907E-01 9.334386960910E-01 9.906716222850E-01 -3.056514946081E-01 1.018896608889E+00 1.936711745612E+00 2.039951022963E-01 -1.571096234608E+00 -1.235440419234E+00 2.125275775913E+00 -2.999625031630E+00 -1.752350178223E+00 6.989581211000E-01 -1.568355794995E+00 -5.089890700120E-01 -2.228389310048E+00 4.106725453239E-01 -4.215465480201E+00 -1.469274019474E+00 1.062525307714E+00 -5.526159155218E-01 -6.532935628476E-01 1.271853493189E+00 8.822720041645E-01 -1.900302656537E+00 -4.274174313637E+00 1.608350773300E+01