#BIOSYM hessian 1
@Type: Hessian Update
@Units
 distance: 	A
 energy: 	Kcal/Mol
#header
@natom 19

#label
L1      L2      L3      L4      L5      L6      L7      L8      L9      L10     L11     L12     L13     L14     L15     L16     L17     L18     L19

#element
Li Li Li Li Li Li Li Li Li Li Li Li Li Li Li Li Li Li Li

#matrix
57
 2.056893748761E+01
 -2.705037664067E-01 4.527330396892E+00
 -2.651475018795E+00 -3.385584608408E+00 6.794107672921E+00
 -5.656779501572E-01 5.936481401137E-01 -8.237721037067E-01 1.552317537150E+01
 -3.529623783118E-01 -1.223945995294E+00 1.552168016902E+00 -2.051017989791E+00 1.465851598960E+01
 4.432425680676E-01 1.531878997868E-01 -1.635744026470E+00 -1.182945996830E+00 -6.863788914763E+00 1.367118010538E+01
 -1.549474821222E+00 9.758465875984E-01 -2.475335453355E-01 1.153827551688E+00 6.838346276489E-01 3.402009451947E-01 8.178642534575E+00
 5.503932243906E-01 -1.231853293268E+00 1.395871862281E-01 3.473466842013E-01 2.266439417344E-01 -1.147711136568E+00 -4.933633132171E+00 4.716454031796E+01
 3.067782287722E+00 1.482550462499E+00 7.879671324595E-01 -6.214646082616E-01 -2.209592535964E+00 2.810817408585E+00 -2.121036314401E+00 1.432463289483E+01 2.889196678928E+01
 8.902235361028E-01 -9.213645910976E-01 4.481741975254E-01 -3.496440347175E+00 4.574441666747E+00 -1.867137917015E-01 -2.819686201075E+00 -5.034842901216E-01 -4.220369537826E+00 1.558524342317E+01
 -1.811285016994E+00 3.156288862943E-02 -8.004699237686E-01 6.914939989047E+00 -9.322580604979E+00 4.127194316830E-01 -4.431429688966E-01 1.495625801829E+00 2.556603242155E-01 -1.805821535791E+00 1.904170584064E+01
 -5.096620012756E-02 1.750953834344E-03 1.052872253348E+00 -1.673781936549E+00 1.844467079809E+00 2.687698595600E+00 2.114911286860E+00 1.575756254058E+00 3.251406177452E-01 -3.568984696348E+00 -4.931068998891E-01 1.947704425077E+01
 -8.713652511494E+00 -3.305355818588E+00 2.426065543124E+00 8.058228454047E+00 4.910369327401E-01 1.852713038904E+00 -1.419770229131E+00 3.587229494163E+00 4.362498251350E+00 -4.671410678023E+00 2.895812077390E+00 -3.693013637123E+00 4.510369462027E+01
 -4.201030482785E+00 -5.439971555693E+00 6.962025642696E+00 5.788574724019E+00 4.273350082239E-01 -4.536821144239E-01 -1.076543328822E+00 -1.623976356395E+00 2.284301775049E+00 -7.706810940925E-01 4.237146603919E+00 -2.239731149175E+00 1.991936055899E+01 1.864108872817E+01
 2.131002159227E+00 2.248399856477E+00 -4.393891671380E+00 -2.416327113739E+00 -4.231499034971E+00 1.797757925661E+00 1.146595435068E+00 7.727059504201E-01 -4.862174542274E+00 1.193918495039E-01 -3.989998609956E+00 -1.531712477223E+00 -2.314923460262E+01 -1.360795582251E+01 2.521370353648E+01
 -3.947544311453E+00 -8.369240002972E-01 6.474509358292E-01 -3.450157277878E-01 1.116252193244E+00 2.423770584164E+00 -1.697878915636E+00 1.471587801137E+00 2.015861329929E+00 2.466959792717E+00 -1.976910148694E+00 9.239836452568E-01 9.908373055316E+00 5.666877338862E+00 -4.497227666991E+00 1.047685300589E+01
 7.714495456185E-01 -3.607101687347E+00 1.800556000820E+00 -2.998148955803E-01 -1.264308831202E+00 -3.517014220425E-01 -7.500380446300E-03 3.288297291621E+00 -1.166378255460E+00 -1.097994594012E-01 8.192918164715E-01 -2.205209470129E-01 4.429788478787E+00 4.292872143080E+00 -2.362506247839E+00 5.073525114859E+00 1.221741893207E+01
 1.609133919962E-01 3.215263564012E+00 -2.569635870104E+00 -1.241642905210E+00 -8.227176874149E-01 -3.323152383111E-01 2.742363338804E+00 -2.725429936250E+00 1.736576107343E+00 1.166769667617E+00 -3.100108311581E+00 9.327303140320E-02 -4.534387986647E+00 -1.876768500329E+00 7.708549673165E+00 6.064899344345E+00 -2.559398961468E+00 2.384162339775E+01
 -1.128139155163E+00 -3.157999332456E-01 -9.364753304455E-01 -1.668939425228E+00 -1.705795724680E+00 -8.277324387649E-02 3.789900360987E-02 -2.159132595408E+00 -1.078938342045E+01 -4.031300666182E+00 8.180464315819E-01 -1.859162497407E+00 -4.037974481002E+00 -2.807094042833E+00 2.060939443465E+00 -4.065802532196E+00 -2.055713070479E-01 -3.284033286248E+00 2.807501553961E+01
 -1.470747653649E+00 -2.495523349553E-01 -2.050535045496E+00 -5.427887683754E-01 3.794872653460E+00 -1.783212774004E+00 1.899800642938E+00 -1.667227374968E+00 -1.029847881594E+01 -1.677276798586E+00 -3.747397768166E+00 -5.956500955881E+00 -2.826184854016E-01 -1.880557590838E+00 2.545493754748E+00 -4.057485699698E+00 -4.037041976719E+00 1.826268543179E+00 2.231389462718E+01 2.775656764239E+01
 2.000092030034E+00 6.281748921263E-01 1.682180688658E-01 -2.219196579299E+00 -1.079808114305E+00 -1.996609472145E+00 -2.722972009050E+00 1.534615022467E+00 -5.745104605295E+00 -1.002476805883E+00 -3.114153657750E+00 -8.935974898095E+00 -6.485154983997E+00 -2.541325812129E+00 6.013902713697E+00 -1.077333273406E+00 2.048446624084E+00 -2.854805900286E+00 1.135874087244E+01 5.987678818277E+00 2.446610385787E+01
 -1.403985455557E+00 6.206194784945E-01 -5.352779496695E-02 2.895480890415E+00 -1.885037669099E-01 -5.008868713295E-01 -1.618010383237E+00 8.200190234987E+00 8.070546490023E-01 -1.773405061621E+00 2.562467158725E+00 9.562414095582E-01 1.201837245800E+00 1.556908896623E+00 -2.106415900545E+00 5.347759966724E-01 -1.441607748670E+00 -6.619598599807E-01 6.285430210499E-01 7.244891587107E-01 1.398915176243E+00 5.820442766475E+00
 3.237992780708E-01 3.479795781017E-02 -1.258011671618E+00 -1.005234117226E+00 -1.115965661882E-01 2.795860325886E+00 1.795232136851E+00 -2.907462212784E+00 -5.311693134884E-01 4.306171850717E-01 -3.813535676242E-01 6.845081798850E-02 2.213601643622E+00 -9.817137512737E-01 1.119048214501E+00 6.174261510698E-01 -6.387458645893E-02 4.484411175268E-01 -2.342393049698E+00 -9.430172079039E-01 -1.273902104994E+00 -2.359176206952E+00 3.257196575664E+00
 1.025461797367E+00 -1.182618990443E-01 2.618523454167E+00 -6.566005753240E-02 2.290046124801E+00 -6.420784336541E+00 8.494113734291E-01 3.633083434233E+00 3.976480782880E+00 -3.128428023074E-01 -5.963438919396E-01 -3.912276845820E-01 -1.562746928390E+00 6.229507337098E-01 -4.244094149812E-01 -1.175049594626E+00 -9.470882678809E-01 2.064131406668E+00 -2.885763503987E+00 -2.389510609504E+00 -8.717503952767E-02 -2.917464311258E-01 -8.468298696857E-01 8.066615961888E+00
 -6.345382422807E-01 -4.424043911512E-01 -3.532121805279E-01 -6.437945131048E+00 -3.273016112603E+00 -3.281174099447E-01 -2.723224108410E+00 -2.768673772174E+00 -5.768695966074E+00 -7.492140598376E+00 -1.911135256132E+00 2.222250486386E+00 -1.306493541786E+01 -7.042796228743E+00 3.824013895252E+00 -1.562446120880E+00 1.702760903947E+00 1.832893646670E+00 5.384078034347E+00 2.406909984813E+00 5.511780919634E+00 1.609796836414E+00 -2.284207471564E+00 -3.121118594110E+00 3.965162939503E+01
 1.517097401189E+00 -2.581322336079E-01 -3.462957007472E-01 -4.371036129844E+00 -2.902965577328E+00 1.318315522871E+00 -4.888249653884E+00 -2.037109434366E+00 -7.266159799547E+00 4.684400857158E+00 8.786400618889E-02 1.409411068555E-01 -1.337337075046E+01 -6.299950677204E+00 3.366963946215E+00 -7.299310041168E-01 1.910806767578E+00 1.461037358650E-02 2.149254042331E+00 7.309976709991E-01 4.467809578480E+00 -1.282759207577E-02 -1.625896757766E+00 -3.856922011021E+00 2.515774916669E+01 2.761239654247E+01
 -3.507003953889E-01 -4.514659717071E-02 -1.395926932001E-02 2.463396248979E+00 4.428198505399E+00 -5.556548967555E+00 -5.809170971828E+00 -8.211164346814E-01 -8.347650659299E+00 5.853064252453E+00 -1.895527977552E+00 1.447709407551E+00 -3.028821447990E+00 -1.750470665943E+00 1.106872558535E+00 -7.577381869797E-01 -4.021324425302E-01 -1.390843847162E+00 1.316230232188E+00 5.184930193497E+00 4.249790470411E+00 1.389615429119E-01 -1.679584892597E+00 -1.594982692306E+00 8.073205426592E+00 1.864064259360E+01 3.261657612304E+01
 -2.014263915807E+00 -2.073109790283E-01 -3.230481569307E-01 -7.519029879915E+00 -6.183131484639E-01 -9.126605762645E-01 4.405502264126E+00 -7.263464213425E+00 -3.457137796125E+00 -3.066776972593E+00 -1.758351579830E+00 -1.633820481269E+00 1.027138816118E+01 1.320542739089E+00 -1.103304748190E+00 -2.671176905219E+00 -1.594684509354E+00 -2.595068378288E+00 1.968993226633E+01 1.400807018326E+01 2.477872695607E+00 -5.061711668002E+00 1.658989665260E+00 3.313103837236E+00 -2.720483638302E+01 -2.890962626552E+01 -2.197529557801E+01 6.519812113387E+01
 -2.825631200270E+00 -1.023476263473E+00 3.310733321682E-01 -4.425137969516E+00 -2.241946787523E+00 -6.190860760741E-01 6.031774339387E+00 -2.093858663242E+01 -5.701544829951E+00 -3.071945720477E+00 -1.051020063857E+00 -3.802911760278E+00 9.785361535641E+00 3.214355455080E+00 -5.567211958891E-01 -3.367776025327E+00 -3.983076570158E-01 -2.159328988378E+00 1.769613598990E+01 1.220220655630E+01 -3.254536414772E+00 -9.040157352408E+00 1.996542259149E+00 2.052268075124E+00 -2.662835909392E+01 -2.862474201126E+01 -2.390029383210E+01 6.414484368589E+01 7.293119978172E+01
 -1.392537035436E+00 5.127436821040E-01 -5.705873917151E-01 -3.468115947303E+00 3.455731230353E+00 -3.699793960816E+00 -1.825561783090E-01 1.537196195345E+00 -4.248782735113E+00 2.161811158516E+00 3.833797733301E+00 -1.293820007043E-02 -8.729107275633E-01 -4.004238007701E-01 -2.576683981588E+00 -1.104109787044E+00 -2.588830358335E+00 -1.468611022655E+00 5.002066895313E+00 4.542835100553E+00 6.658245725674E+00 2.414346209496E+00 1.478174549237E-01 1.084606479156E+00 -2.890387370049E+00 -1.907003249773E+00 1.908545085823E+00 7.729356421409E+00 7.890637700405E-01 1.264564245930E+01
 -2.740027640420E-01 1.160455921937E+00 1.583541929968E-01 -3.680562563164E+00 1.160264405098E-01 6.893469046383E-01 -7.563783184867E-01 -2.265103541165E+00 -2.149855609250E+00 3.980534548541E+00 -2.750735196227E+00 2.197791908356E+00 -2.626275068074E+01 -9.989959436052E+00 1.183623948288E+01 -2.965743886949E+00 -3.512956530029E-01 2.473341804172E+00 -6.358420779447E-01 -2.584639053537E-02 2.835698757244E+00 3.298401728103E-01 -2.099399137860E+00 -2.183982980713E+00 2.040744369852E+01 2.206006061251E+01 1.439142919341E+01 -2.959179079524E+01 -2.846819648569E+01 -2.778730915461E+00 2.991648150503E+01
 3.563667031218E+00 5.046258034747E-01 -1.929978395593E+00 -8.355782203104E-01 6.166608248186E-01 -2.989387266441E-01 -1.716678265499E+00 7.263352993565E-01 -2.794175411127E+00 2.094365432514E+00 -9.031078980843E-01 7.309013757651E-01 -1.347542298029E+01 -6.769056843208E+00 5.389092760598E+00 -1.464449042417E+00 1.763620676413E+00 -4.891762466825E-01 -2.889365586260E-01 6.634302570519E-01 2.390049211532E+00 1.065363601642E+00 -1.141588227234E+00 -2.403346865430E+00 1.434041940275E+01 1.558488529917E+01 1.168621108570E+01 -2.178152350978E+01 -2.219149356826E+01 -1.152219976177E+00 1.725003096746E+01 1.316892979414E+01
 2.025669703201E+00 -1.042739479590E+00 -5.967737643101E-01 6.804577635232E-01 1.557121452839E+00 -2.618735375533E-01 -1.324839910726E+00 1.051779547502E+00 -3.199293404673E-01 7.129195601964E-03 -3.869861703175E-01 -8.521783690512E-01 1.014548361958E+01 3.212915421119E+00 -8.112063583779E+00 1.827585022670E+00 2.644187386010E+00 -3.676387727547E+00 -1.482032621320E+00 -3.714878499942E-01 -1.452586267984E+00 3.141290012694E-01 3.449778439734E-01 -1.423864517799E+00 1.428719265107E+00 1.586047273026E+00 2.297207404335E+00 -2.825721173611E+00 -3.577405737735E+00 -2.716263180838E-01 -4.138111789982E+00 3.329252883173E-01 5.603990670766E+00
 5.279035492361E+00 1.865533182943E-01 -1.225526956370E+00 -8.582330151880E+00 -1.829160688905E+00 -7.175775483201E-01 1.323467576170E+00 -5.364801445410E+00 6.086002854512E+00 -8.242423770542E-01 -3.863773087365E+00 7.778991988333E-01 -2.500727494540E+01 -9.913240274261E+00 1.482160806407E+01 -7.842888968205E+00 -4.280891881633E+00 3.335207602462E+00 -3.165067939886E-01 2.433993610898E+00 -2.841451721304E+00 -1.740701438438E+00 -1.557154614534E+00 3.324588067624E+00 5.700977410107E+00 2.463482187619E+00 -2.322344781035E+00 3.819046428960E+00 5.107619484429E+00 -2.042200804123E-01 1.451459686631E+01 6.082707537446E+00 -6.319413975714E+00 3.861417563363E+01
 1.535355888373E+00 1.492999029375E+00 9.799951529591E-01 -3.053668597459E+00 -2.950650399784E+00 1.034219574723E+00 3.920509067042E-01 -6.164258014460E+00 -5.895252432497E+00 -8.758811094955E-01 -1.552089681209E+00 1.737499076624E-01 -6.964263889187E+00 -3.877620508648E+00 4.716458410963E+00 -4.437419250970E+00 -6.562476976591E+00 2.332723403980E+00 4.213270251021E+00 2.754008398767E+00 3.494172513400E+00 -4.627179083671E-01 3.522096651906E-02 1.704862017243E+00 3.851103278356E+00 1.710711543874E+00 -2.143329042520E+00 5.597191375597E+00 5.353855725125E+00 8.749387250672E-01 2.173208930474E-01 -2.032865558616E+00 -2.874553532272E+00 2.485007060939E+00 1.099266481810E+01
 -2.621654359229E+00 8.641109507557E-01 -1.326444159772E+00 1.655833684174E-01 2.165438493976E+00 8.798927814951E-01 6.907680582223E+00 -4.228973229644E+00 -1.274304354219E+00 -2.125812418434E+00 -2.535536812550E+00 2.444558343942E+00 2.302885535749E+01 5.290540617656E+00 -1.704089700828E+01 4.313808756977E+00 4.680021685213E+00 -3.861186391697E+00 -3.009205858421E+00 3.575212387683E-01 -6.989613860261E+00 -8.899218924991E-01 2.277693015628E+00 2.158516670557E-02 -8.511527502554E+00 -7.340975493572E+00 -3.272245616796E+00 1.204181802237E+01 1.081896086924E+01 1.148092539223E+00 -1.396251749899E+01 -5.861547285422E+00 8.688161816998E+00 -5.997188826266E+00 -4.867172333028E+00 3.660128964369E+01
 2.737008462913E+00 8.556757621279E-01 4.170538492372E+00 7.312738098507E+00 7.421654785762E-01 -8.218761127424E-02 -5.441098463853E+00 1.868942603149E+01 2.476985835131E+01 4.109523707686E+00 1.143431642603E+00 3.118991701630E+00 1.020012903663E+01 1.020207348673E+01 -4.947249510189E+00 8.238902652077E+00 -2.500248860880E+00 8.990181829319E+00 -3.938170582432E+01 -3.466878684135E+01 -8.186124320576E+00 4.491992722665E+00 -7.848832974172E-03 5.747075270012E+00 -1.192105999672E+01 -6.305252437275E+00 -3.944612077393E-01 -3.184977337907E+01 -3.531551853913E+01 -5.081499409287E+00 -3.686714544908E+00 -3.621259682800E+00 3.991597781270E-01 -1.057279946689E+01 -4.798660527032E+00 -8.002193084406E+00 7.979135764938E+01
 1.820817712779E+00 3.630353517171E+00 -1.471689662151E+00 1.289061624192E+00 3.384973775404E+00 7.652070020910E+00 3.812156680728E+00 -3.501944196825E+01 7.771230068321E+00 1.500214953528E+00 -8.013298047460E+00 6.487033487631E-01 -3.080337313515E+00 -3.360634715225E-01 6.576807030852E+00 6.165875731630E+00 -5.566409633279E+00 7.366184016763E+00 -3.290598404863E+01 -2.791603837212E+01 -5.377621974489E+00 -7.435327262467E+00 9.101404021753E+00 -9.453926170413E-01 -5.472078599843E+00 -7.224452297712E+00 -8.529687431735E+00 -1.854625413305E+01 -9.232261827806E+00 -6.208103033207E+00 3.987031427158E+00 -3.981261783658E-01 -2.872626546184E+00 3.441000017516E+00 1.040874898536E+00 -5.214841762022E+00 3.927347634471E+01 9.845714837515E+01
 1.356185226830E+00 -2.902711831885E+00 1.247439709031E+00 6.392187460886E+00 1.097306481187E+00 5.408940199746E+00 4.178716072773E+00 -2.632041799841E+01 -3.477147285036E-01 5.510465043840E-02 4.103808228798E-01 -2.388097931479E+00 -4.385984838749E-02 5.178501771814E+00 -5.372684480871E+00 9.460757912252E-01 3.869090760058E+00 -5.982120550682E+00 -4.324849602072E-01 -5.064884404382E+00 -1.463357300739E+01 -6.277305630601E+00 1.035408865667E+00 -4.522767913504E+00 -3.564934471474E+00 -9.966422560499E+00 -2.491495993141E+01 7.884153968358E+00 2.753680735536E+01 -1.465525308985E+01 -4.174929473010E+00 -4.633124016244E+00 -4.489468317840E-01 -1.798673645861E+00 -2.764145628380E+00 -3.751424563735E+00 -1.305614500003E+01 2.623451158962E+01 7.242584952856E+01
 1.416347527980E+00 -1.014409106775E+00 -5.464343560311E-01 -2.400972252128E+00 2.824145419301E-01 2.012966581945E+00 4.103378396352E+00 -1.082621688100E+01 -4.508172840368E+00 -6.572641862610E-01 -6.290842016305E-01 1.915121426821E+00 -5.406243410574E+00 -4.393014665047E+00 3.810611258654E+00 -5.003945035938E+00 2.090465548982E+00 -7.439400660780E+00 2.041023665957E-01 -5.776950447008E-01 -1.761441706337E-01 -6.313960647443E+00 3.915132912161E+00 -2.861290007990E+00 1.040885237967E+00 2.654543770841E+00 3.169445975623E+00 5.426932375124E-01 4.724806169594E+00 -9.997856565106E-01 4.198173313772E+00 2.679612155868E+00 -1.854659416393E-01 2.251264286585E+00 -6.368429077018E-01 1.006501057679E+00 -1.043382257142E+01 1.054840287687E+01 5.902486506265E+00 1.512874802982E+01
 3.461340865941E-01 4.844451226735E-01 1.327964506197E+00 5.261518222155E+00 -4.479234116925E+00 -4.947327300344E-01 -3.332776032122E+00 2.662324000811E+01 1.247186311609E+01 -2.508125953497E+00 4.990196589986E-01 4.379054862610E+00 3.420610487588E+00 6.723662260014E-01 1.100303605992E-01 -1.214709753207E+00 -1.246019934364E+00 -1.919793011355E+00 -1.081877315472E+01 -1.318951926790E+01 -2.519239062788E+00 5.828337669789E+00 -4.193498381531E+00 4.510163376692E+00 -4.158659191495E+00 -3.643792710633E+00 -2.353925603267E+00 -7.179109968177E+00 -1.209258559485E+01 -4.894892076476E+00 -4.556415635793E+00 -3.426544705164E+00 -1.128421879389E-01 -7.647245103310E-01 -6.406826936118E-01 2.267200916654E-01 3.039472738804E+01 -1.505245375871E+01 -1.531949403169E+01 -9.838953822390E+00 3.685088471536E+01
 -3.787124175546E+00 -1.872012652190E+00 -5.226900046550E-01 2.175998508041E+00 1.122477059115E+00 -6.335882730122E+00 -5.363282143947E+00 5.394995152841E+00 -5.373138788959E+00 1.611034441688E+00 6.065639021961E+00 -9.012256679047E+00 5.504918158077E+00 3.644104421015E+00 -7.192565265914E+00 -5.330424107419E+00 -2.033741384845E-02 -1.002866853650E+01 4.417161890256E+00 7.420246493228E+00 8.673720157513E-01 3.743700704537E+00 -4.317120012101E+00 -5.793749136192E+00 7.919464639283E+00 8.454684531622E+00 1.050105353106E+01 -9.176823263883E+00 -8.451115893973E+00 2.721399695840E+00 2.436488144898E+00 4.255710618414E+00 5.067769102507E+00 -3.856175016123E+00 -4.169233268917E+00 -1.815060245673E+00 -5.563717456368E+00 -2.469032567010E+01 -3.968887464931E+00 -3.559172046595E-01 1.875862361318E+00 3.338744160296E+01
 -6.907265872488E+00 4.751739494325E-01 -1.123666009980E+00 2.600162574451E-01 5.900011299621E-01 -7.802474292100E-02 1.365832314042E+00 -1.936555867618E+00 -3.233014013969E+00 -3.051830771791E-01 -1.124693498661E-01 -1.506718966063E-01 1.649519201298E+00 -1.197461611505E+00 1.872957528305E+00 8.229350136411E-01 -3.636278879549E-01 2.442634059346E-01 5.821098155319E-01 1.295394368115E+00 -1.346694772359E+00 -7.484546968387E-01 8.440133226700E-01 -9.028470008911E-01 3.934996579068E-01 -9.523013922696E-01 -5.217601527926E-01 2.140956076132E+00 3.878121614049E+00 2.902055674013E-02 -3.224628591942E-01 -1.047266523973E+00 -9.340622459191E-01 -6.159663249078E-01 -9.416349705507E-01 1.596967190606E+00 -4.566944011180E+00 6.368097911212E-01 2.031980390997E+00 1.391104400921E+00 -8.267842744773E-01 5.679092941610E-01 4.290045785943E+00
 2.988527444902E-01 -2.213853846777E-01 2.987052184971E-01 -1.100082482044E+00 1.150666983857E+00 6.872987359226E-01 -1.072644728691E+00 -2.327575024273E+00 -2.788625418911E+00 2.875081284004E-01 -1.528957084620E+00 9.529618747424E-01 -3.734308006283E-01 2.842766686160E-01 -1.931781550326E+00 6.493066819246E-01 1.133300428679E+00 -8.728801672651E-01 4.546031402893E+00 4.018445311326E+00 3.084523615546E-01 4.183321574427E-01 -1.055581468196E+00 -3.181767775625E+00 3.913049878790E+00 3.963467685013E+00 3.407572087232E+00 -1.966955414024E+00 -1.706603532027E+00 -6.592632791178E-01 3.182431981315E+00 2.617508368902E+00 1.298093346669E+00 -2.303597226750E+00 -4.182990380547E-01 -7.937840907554E-01 -6.929937381107E+00 -4.345997471681E+00 2.949398299894E+00 3.749713114421E-01 -5.741327382079E+00 4.375572460168E+00 -1.162159840299E+00 4.361429511307E+00
 -1.971483438901E+00 8.227100714208E-01 -1.411444466602E+00 1.748630099265E+00 -2.063434150870E+00 -8.392304029123E-03 1.980628448182E+00 2.581745819180E+00 1.602411305180E+00 -4.232079536765E-01 2.774527862399E+00 -1.611429406764E+00 9.044752763900E-01 -2.028868670687E+00 4.003011281643E+00 -9.790959152358E-01 -2.607949061594E+00 1.682391849538E+00 -3.898191811931E+00 -3.279783492706E+00 -2.174486586465E-01 -1.211125039899E+00 2.604926619414E+00 4.037872138082E+00 -4.781840555363E+00 -5.123311529794E+00 -4.921910210750E+00 4.275066509908E+00 4.023458727108E+00 1.192109652136E+00 -5.018705764664E+00 -4.005901525209E+00 -2.197082593087E+00 6.666205457371E-01 1.751466699260E+00 3.360614402176E-01 5.115520785095E+00 5.625514203878E+00 -3.391673714045E+00 3.858273999486E-01 5.434762040337E+00 -7.787908819444E+00 2.796845500958E+00 -6.227380610254E+00 1.056356823656E+01
 -4.770976272987E-01 -9.544361010610E-01 1.400747239105E+00 -1.428052771388E-01 6.612428257127E-01 -1.756678541568E+00 -1.895625741106E+00 3.645403249837E+00 7.334547303549E-01 5.352366583318E-02 5.129067154683E-01 -1.114772187181E+00 2.701648020996E+00 2.021465012994E+00 -2.472278305182E+00 2.093080273150E-01 7.705764286510E-02 -1.245018780760E+00 2.543311809579E-01 -8.874176758720E-01 2.457783505284E+00 4.046899489077E-01 -5.112537231534E-01 1.264790814023E+00 1.470656322200E+00 6.442173638069E-01 7.240887812020E-01 -7.895326897314E-01 -1.681763569397E+00 8.933046699568E-01 -2.302674413892E+00 -1.368259861901E+00 6.606947124635E-01 -4.224678765985E+00 5.693126428469E-01 -1.847541525301E+00 3.798188007407E+00 -4.159775847037E+00 -2.764855263235E+00 -1.339022188823E+00 3.354417022541E+00 2.390527843013E+00 -6.381126290639E-02 -7.192801386365E-01 1.143911000114E+00 2.672578513761E+00
 -1.134203259499E+00 1.141488443928E+00 4.969780393284E-01 -2.266259666834E+00 -7.051963423614E-01 3.884041261106E-01 5.258612840738E-01 -3.615842146763E+00 1.181967889068E+00 -9.662937481496E-01 -4.458401251707E-01 7.304116959822E-01 -2.567010968107E+00 -4.973920313316E-01 -4.178326327627E-01 -8.221757550190E-01 -3.689257321338E+00 3.739688059426E+00 3.663989330729E-01 1.283196505971E+00 -2.504675244219E-01 5.351311196846E-01 -5.776098272475E-01 4.087977717567E-01 4.719321496157E+00 2.641416972389E+00 3.196903353453E-01 -1.933804703325E+00 -2.272575129375E+00 1.098431917652E+00 2.998113063328E+00 4.795633919777E-01 -9.536650729926E-01 3.896112770873E+00 2.996937697601E+00 -5.435947777269E-01 3.698889808686E-01 1.508003508110E+00 -3.449549391014E+00 -1.521945783653E+00 -7.127119572335E-01 -1.607667416507E-01 -2.762845763169E-01 1.428975196046E-01 -4.155832255690E-01 -5.011176862677E-02 3.408144071787E+00
 2.510730967558E+00 3.709547244536E-01 -2.799011115556E+00 -1.433765607467E+00 2.079846642181E-01 5.162900790168E-01 -1.399490792249E+00 2.625415234217E+00 -1.580126850002E+00 1.164620591230E+00 2.036012327838E-01 8.371228745030E-01 -2.811933639578E+00 -4.585695659558E+00 1.885943388657E+00 -1.546504619891E+00 2.962885916847E-02 -2.300906714758E+00 2.877024928551E+00 1.253676337716E+00 8.924046978037E-01 -5.465699036418E-01 4.825674243200E-01 -2.011918538002E+00 2.373678612183E+00 2.537874610096E+00 1.588386033061E+00 3.714089435200E-01 -1.465624228310E+00 1.081034338088E+00 9.676269219775E-01 2.142244554344E+00 1.187093054327E+00 -2.225872483477E-01 -4.899502379783E-01 -2.109008712697E+00 -4.599939372721E+00 -3.403365760399E+00 -6.399489890254E-01 1.862009233260E+00 -7.721423257162E-01 2.988875836084E+00 -4.982787673492E-01 1.233684414897E+00 -1.029956062512E+00 -4.470712566982E-02 -9.364287501654E-01 5.025913326059E+00
 -3.989303479964E+00 8.156405151614E-01 -3.490784893468E-01 -6.393776984369E-01 -6.685004699998E-01 4.797632577400E-01 2.141513216253E-02 -1.291830238048E-01 -1.455109965198E+00 1.163642238488E+00 6.367567677062E-01 -7.853314388498E-01 8.163758049727E-01 -3.982486516248E-01 -4.008065196539E-01 3.358420773444E-01 -8.123816288790E-01 5.703476910697E-02 1.310846625665E+00 1.468533427188E+00 -9.882089856764E-01 8.057778497862E-01 -5.179567607624E-01 -1.441308149531E+00 1.946787936196E-01 6.742826449263E-01 1.106760647956E-01 1.054910047826E+00 4.334538892544E-01 5.121907993893E-01 8.686202022436E-01 1.485010957286E-02 3.658852025839E-02 -6.563356502941E-01 1.036730577370E-01 6.966660797201E-01 -2.532567200438E+00 -2.164536638147E+00 -3.261476663437E-01 -1.169815430843E+00 -1.001024575681E+00 3.173295617058E+00 4.986134999685E-01 1.418465022053E+00 -1.732151412257E+00 -8.576395405937E-01 5.117801836805E-01 1.341256917120E+00 3.134623998403E+00
 -3.639098351713E-02 -3.009077369491E-01 3.079927291302E-01 -2.055656922148E-01 3.116312354079E-01 -3.495160884046E-01 1.617785021769E-01 2.196066312376E-01 2.437767568507E-01 3.318488051394E-01 -3.229405550196E-02 8.374827685329E-02 2.503041438091E-02 2.676412552351E-01 -5.460263660256E-01 -2.095971940903E-01 4.420153121600E-01 -6.525768802136E-01 -2.290360636847E-01 -9.727785442790E-02 -4.308755529105E-01 -1.196535269613E-01 -1.199190262184E-01 3.183630333031E-02 -2.488672348113E-02 2.868910834860E-01 5.406457704352E-01 -3.617430302326E-01 -5.125680747711E-01 1.521698251166E-02 5.527151168864E-01 2.635036783037E-01 2.394465526601E-01 6.219737094034E-01 -4.971291028299E-01 6.108493627076E-01 -9.282045671425E-02 -5.126664573208E-01 -1.148349010656E-01 3.584458636353E-01 -1.643035041639E-01 9.485946995389E-01 -3.642156330560E-01 3.890053674361E-01 -7.964303435045E-01 -1.719927800059E-01 -7.920292903533E-02 4.604831874552E-01 4.879886270417E-01 6.314407706197E-01
 -2.636638955858E+00 3.443093815007E-01 1.538329369905E+00 1.130910328210E+00 -3.653395448479E-01 2.728622506803E-01 4.269030489661E-01 1.227475556760E-01 8.703556302991E-01 -9.732645282216E-01 3.122154652396E-02 -7.703901497440E-01 1.085779453888E+00 2.224941108925E+00 -8.584511463110E-01 1.481814271771E+00 -1.679879036702E-01 1.012147630461E+00 -4.064504170625E-01 -1.678105576078E-01 1.649399177934E+00 1.192748827311E+00 -5.409690990635E-01 8.202518192384E-01 -9.550398927831E-01 -1.179955603944E+00 -8.042374309640E-01 -8.549186238905E-01 -3.721489034617E-01 -9.646992649290E-02 -9.771684421017E-02 -1.136029233201E+00 -1.392239068863E+00 -1.260587032092E+00 3.460471048056E-01 4.250307314105E-01 2.185004484489E+00 4.496443701750E-01 -1.012448083781E+00 -1.921516371132E+00 1.053825298617E+00 -2.305913448699E+00 8.642959226061E-01 -9.264460152204E-01 1.166392222625E+00 3.954917763790E-01 5.461277687989E-01 -3.504883794793E+00 -9.641182997683E-01 -5.901837715895E-01 3.635380691477E+00
 -3.982953477026E-01 1.341275470566E-01 5.723461536663E-01 -6.738879822478E-01 7.381017381280E-02 -1.680919844409E+00 -6.728992225496E-01 2.197746606128E+00 1.731375413689E+00 6.414066914141E-02 1.446927536863E+00 3.824371265669E-01 -9.628677068835E-01 -1.454819799641E+00 -1.221612403789E+00 -1.558482846491E+00 6.176321570773E-01 -4.633807112553E+00 -3.865970087057E-01 -1.931927191109E+00 -1.130012807631E+00 -2.333952719045E-01 -2.339266184176E-01 1.508218894213E+00 -3.543861775320E-01 2.312726655694E-01 2.511579601725E-01 5.060819249369E-01 -9.510219263347E-02 3.415360434150E-02 7.050385693976E-01 7.413708114069E-01 4.058902666391E-01 2.376614690594E-01 -5.598412554911E-01 -5.767697569690E-02 -1.369766980038E+00 -1.309679764249E+00 8.257169950524E-01 1.273472830184E+00 -1.597880103918E-01 7.066877218690E-01 -5.806048823453E-01 3.505212254623E-01 -3.641215507362E-01 -1.635714737130E-01 -9.057291771088E-01 1.290318849708E+00 1.012288531355E+00 5.176843157183E-01 -1.049195865499E+00 3.280798008949E+00
 3.287267186967E-01 1.248669986436E+00 -9.301731196603E-01 -9.101661427871E-01 8.630940872218E-01 -1.467198424029E+00 -5.785196862264E-01 3.467467258611E-01 2.349780789705E+00 9.760195412368E-01 1.216409032518E-01 4.089167741159E-01 -2.729778016026E-01 -2.093499914375E+00 -1.858674884182E+00 3.067824678680E-01 7.866215787369E-01 -1.990110942620E+00 -1.002723336329E+00 -2.776902323985E+00 4.006847261757E-01 -7.857116285605E-01 -1.709492329602E-02 1.123209458865E+00 -2.066812747059E+00 -3.882434805264E-01 5.584726134994E-01 1.663466651506E+00 1.729547814418E+00 6.747593496279E-01 -9.096010637935E-01 -1.341639652905E-01 4.315132641563E-01 -1.016798907820E+00 -1.544031743000E+00 2.632530491636E+00 3.517759504569E-01 -7.961897149080E-02 -1.011722554786E-01 8.887360645527E-01 9.834187012003E-01 -1.173765947032E+00 5.443748729669E-01 -8.584029161970E-01 1.191228956378E+00 4.365341069299E-01 -6.813742356217E-01 -1.249463731771E-01 -8.188052249029E-01 -2.797238984083E-01 5.825054416816E-01 9.557806238968E-01 3.071843123354E+00
 -9.087850029296E-01 -1.182525902620E+00 1.860845698900E+00 -5.397350699217E-01 -9.346412016378E-01 -3.433146587506E-01 -1.264701643886E+00 2.169713262362E+00 -1.641419477380E+00 2.281140635445E-01 1.323590649725E+00 -1.246317575796E+00 -2.841873465022E+00 -3.375852961009E-01 2.169629062969E+00 -2.770464355910E+00 -1.831120551771E+00 -2.377193516722E+00 7.718107912709E-01 1.333830384079E+00 -1.212084911454E+00 8.441952419268E-01 -3.567584665412E-01 2.915075567541E-01 3.934464980304E+00 2.750278438471E+00 3.592019531094E-01 -3.556003654836E+00 -4.624811594039E+00 -5.893120881735E-01 3.503634390630E+00 1.868456315252E+00 -5.449050194613E-01 7.804461902197E-01 2.844585810256E+00 -7.423482651504E+00 -7.708566734853E-01 -1.875916949026E-02 8.633067100255E-01 -9.137911723648E-02 -2.008850822812E+00 3.349555010144E+00 -1.761238708650E+00 1.889621814808E+00 -2.035608264701E+00 -4.486054336473E-01 2.805480792516E-01 2.545784939266E+00 3.020473388140E+00 8.594472690639E-01 -2.670144025730E+00 2.858346884428E+00 -3.016485478597E+00 9.674854740091E+00