#BIOSYM hessian 1
@Type: Hessian Update
@Units
 distance: 	A
 energy: 	Kcal/Mol
#header
@natom 19

#label
L1      L2      L3      L4      L5      L6      L7      L8      L9      L10     L11     L12     L13     L14     L15     L16     L17     L18     L19

#element
Li Li Li Li Li Li Li Li Li Li Li Li Li Li Li Li Li Li Li

#matrix
57
 1.204807340495E+03
 -9.101348973331E+00 1.502720828005E+03
 -2.985051544677E+02 1.043119296888E+01 1.410164440135E+03
 1.597172586003E+02 1.323341442247E+02 -4.086732076631E-01 1.429713462449E+03
 9.932765665032E+01 -1.905565529815E+02 1.099136704079E+02 -1.066405271579E+01 1.479062903481E+03
 -1.136016222348E+02 5.990277402232E+01 1.380022880297E+02 -1.514722525681E+01 3.938458435073E+01 1.772927539250E+03
 3.286357775267E+01 -1.523062630738E+02 -1.153678366472E+02 2.354514399203E+02 -3.683828725939E+01 2.613729033660E+02 1.407957373698E+03
 -9.965597466976E+01 2.081187444816E+02 -3.942902102653E+00 -6.202448646528E+01 1.799693374738E+02 -6.288772447405E+01 8.418547200522E+01 1.531239536189E+03
 1.794552098162E+02 -1.039930987351E+01 -7.071501546191E+01 -8.498975954723E+01 1.641956536779E+02 -5.405944433086E+01 2.986509153349E+02 -9.521535712026E+00 1.485606218961E+03
 4.304100710434E+01 2.010719625651E+02 -1.145002375861E+02 -1.455357945367E+01 1.862957285049E+02 2.362416492819E+02 -2.601167229764E+02 5.818495223311E+01 -6.411752005610E+01 1.441710060021E+03
 3.057572796561E+02 4.938195939302E+00 -1.029747067812E+02 1.548056564502E+01 -1.267240591982E+01 1.814463671417E+02 -2.264529625135E+00 3.504576302344E+02 1.758873757446E+02 2.027194225744E+01 1.504892468476E+03
 6.320049874604E+01 -2.149466278116E+02 1.294042013074E+02 1.389620759916E+02 8.166712872282E+01 1.813690141385E+02 -1.244676158018E+02 6.063331910307E+01 6.780471539699E+01 -2.596174621274E+01 -3.013526533717E+02 1.504254680094E+03
 -7.674804008817E+01 -2.749844695588E+02 -1.268965320175E+02 2.546041198221E+02 -6.336968772631E+01 1.311293571857E+02 -5.084833815489E+01 -1.825518506331E+02 -2.118684196030E+02 -3.249689022010E+01 1.255807530182E+02 -2.793861477603E+02 1.358745071298E+03
 3.789746943934E+01 1.406564840949E+02 -2.543842448866E+01 -1.138388319042E+02 1.940092621980E+02 -1.030685683439E+02 -5.897244821548E+01 -6.588682325018E+01 1.559044776387E+00 5.483698223701E+01 -3.460056672111E+01 1.427926820082E+02 1.934748676235E+02 1.725412067595E+03
 1.967306756776E+02 1.834330313899E+01 6.326319865479E+01 -2.446668667994E+02 -1.027623092625E+02 8.522289163749E+01 -2.257349860201E+01 -3.923677463020E+01 -8.080953767215E+01 -8.917730844932E+01 1.300700866354E+02 1.129753382960E+02 -2.289453989149E+02 1.735130314217E+02 1.722749063623E+03
 2.060088032643E+02 -2.941078662130E+01 1.578325786522E+02 -1.647441630681E+02 -1.923256681330E+02 1.701381623918E+02 -1.616894419633E+01 8.108626959325E+01 2.135070376540E+01 -1.126524926812E+02 4.882751259351E+01 6.612729205285E+01 1.288758256495E+01 -8.989407693395E+00 -1.299596274162E+02 1.800873844031E+03
 -9.684187340743E+01 3.567154412952E+02 -3.086139225045E+01 -5.810988929022E+01 -9.143587277730E+01 1.205382184237E+02 1.511834524880E+02 9.280312680594E+01 4.087252936107E+01 -4.951927983707E+01 -2.395451397167E+01 -1.744065405545E+02 -1.151288301614E+02 8.484408419453E+01 -3.924322783721E+01 -1.911285824628E+02 1.066999776485E+03
 -1.019933888387E+02 -1.309159391679E+02 1.479214264710E+02 1.143615236718E+02 9.389456193760E+01 6.122765798856E+01 -1.977772382566E+02 1.139801661366E+02 1.681740928304E+02 -9.012942058475E+01 -2.356100539601E+01 1.813424959379E+02 2.611911261236E+00 -1.424895938867E+02 -1.692936754807E+02 -1.321752108061E+02 3.271663643698E+02 1.171283084408E+03
 3.061637161449E+02 1.074112221160E+02 2.691721552059E+02 1.979162367950E+01 1.061373493279E+02 -7.553411172366E+01 1.050080699344E+02 -3.180465988701E+02 -2.209633224262E+02 1.966703552941E+02 9.384690905165E+01 -1.905934110247E+02 -7.490744936999E+00 -7.319754837992E+01 9.925347322148E+01 -5.114157387574E+01 -9.182181307419E+01 -2.844722053542E+01 1.223056369930E+03
 3.158847113197E+01 1.861729601040E+02 -2.003382717316E+02 -2.982563110678E+01 2.461742393690E+02 -9.306932448715E+01 -4.122044859055E+00 -8.865522156866E+01 -6.590555900709E+01 2.214882470136E+02 -5.168557955955E+01 3.991275737825E+01 1.146933070820E+02 -1.155736000366E+02 -1.306274785946E+02 2.154404601247E+02 9.796533739528E+01 -4.761343240989E+01 -1.733500895857E+02 1.297465360184E+03
 1.164384621107E+02 -3.793182647055E+01 4.153051520318E+02 9.588804345652E+00 -5.302665929950E+01 9.955530457268E+01 2.934203253942E+02 3.112691176036E+01 -1.155535758004E+02 9.024822651632E+00 8.546556418721E+01 -3.813568810186E+01 1.559777855809E+02 2.645411465945E+02 1.991169836992E+01 -1.704174135227E+02 9.067831700793E+01 6.584785662040E+01 -1.847558885131E+02 2.534291783664E+02 1.265677538584E+03
 -3.912510349729E+01 -2.255538307179E+01 -1.357992514240E+02 -2.484289033273E+02 1.345423829134E+01 6.271469288554E+01 5.883438177733E+01 1.442666081254E+02 4.706430978901E+01 -6.199276868628E+00 -2.636938714452E+02 -1.539305495849E+02 2.998863376849E+02 1.631785966416E+02 -3.858299523298E+00 1.875223611259E+02 2.646175762803E+02 2.701482846666E+02 2.348306333944E+02 -2.354250695794E+02 -3.165766827499E+02 1.318978764641E+03
 -3.363417418915E+01 1.037704661551E+02 -8.205989526151E+01 2.097636204548E+02 -6.398597936528E+00 -1.388114090165E+02 2.784408300009E+01 -1.910125874525E+02 -1.075735351996E+02 -2.130272852831E+02 7.889429510275E+01 1.714769436385E+01 -9.912871934274E+01 1.311166991272E+02 1.269016359016E+02 2.552392197754E+02 3.688252555359E+02 2.887411088599E+02 8.543886255380E+01 2.847282210420E+02 -1.971413875294E+02 -1.489947882911E+02 1.283152278581E+03
 -3.803029035716E+01 4.641712699669E+01 3.953922526096E+00 -1.328571286842E+02 -1.011582983332E+02 -1.337468314208E+02 8.384099545311E+01 1.606786800140E+02 -1.231821996581E+02 -8.182184257177E+01 -6.559239638180E+01 -1.457620262177E+02 7.251457926182E+01 7.207680647894E+01 -2.444414534255E+01 -1.085800534214E+02 -1.180167097826E+02 4.931057362294E+01 -3.661234822782E+01 1.696423853022E+01 2.740513693808E+02 -6.483589450787E+00 -2.648930959411E+00 1.224492990983E+03
 7.599289393775E+01 4.036362329619E+01 3.026000307018E+01 3.474537354139E+01 -7.411789395196E+01 -1.726230260523E+02 1.168974058773E+02 1.185774187319E+02 -8.027238901337E+01 -8.991212803577E+01 2.303023205851E+02 3.473725818769E+02 8.860661522697E+01 4.329845459318E+01 -5.129961106903E+01 -4.756236187426E+00 -1.052878898042E+02 1.144210478777E+02 2.140269485082E+02 2.594530181914E+02 6.941865672251E+01 2.917815197739E+02 -1.433448726240E+02 -7.041857095740E+01 1.516335622351E+03
 -1.059154653961E+02 1.145932599709E+02 7.406884866156E+01 4.442077147637E+01 2.248398122135E+02 9.518577251713E+01 1.266711375585E+02 2.445091798732E+01 2.140400660095E+02 -7.319784095055E+01 -1.715492009459E+02 -9.731456516929E+01 1.310738820782E+02 -8.762567604497E+01 2.122941137999E+02 -1.451136245180E+02 -1.992577141367E+02 -4.399597808697E+01 8.434108925612E+01 3.046265474015E+02 -8.209845287684E+01 1.918155316932E+02 3.780603911818E+01 -1.109178145920E+02 -8.842776831465E+01 1.605193215080E+03
 -8.145147454099E+01 1.000257315667E+02 -7.650371276834E+01 2.241143272939E+02 -6.200559879904E+01 -5.729052223127E+01 5.930650244912E+01 7.599078073298E+01 2.130384769095E+02 1.236178521712E+02 -6.610170105933E+01 1.891877531677E+02 1.994483666591E+02 1.462265750608E+02 5.619518101206E+01 -3.281824150563E+01 -1.124213102265E+01 -1.612466837802E+02 -3.900912299786E+01 -2.581896762402E+02 -4.958036592340E+01 7.326810311477E+01 7.415752091213E+01 -1.046008200969E+02 -2.318002569200E+01 -9.570378401921E+01 1.527775799359E+03
 1.822076811440E+02 -1.388222709461E+02 1.197480002029E+01 1.299999712149E+02 -4.560684425122E+01 -7.067689994779E+01 4.299437546649E+01 -1.194515090224E+02 5.882783351292E+01 1.963372874714E+02 2.873659917154E+01 -1.665719704272E+01 -2.312719131098E+02 -7.338059685857E+01 -4.870469320239E+01 1.131606317562E+02 9.871904720387E+00 1.751086304442E+02 4.406374520301E+01 -2.208188855103E+02 1.077671354852E+02 5.495561716994E+01 1.192324553627E+02 3.522870329799E+02 -1.631461124964E+02 1.524788408459E+02 -2.810965547427E+00 1.513045937461E+03
 -2.696033361000E+02 -5.438993060788E+01 -1.604271543283E+02 9.860885641794E+00 -2.773893787660E+02 1.541470346667E+02 6.001866663393E+01 3.769405724802E+01 -9.114983050169E+01 -7.406507182256E+01 1.769796837497E+02 2.237784739989E+02 2.013027695781E+01 2.170941048407E+02 -4.589140820581E+01 -8.555067964422E+01 8.282917913475E+01 -8.660264651508E+01 9.469727075483E+01 8.745277208652E+01 -1.725427754738E+02 -3.584282786144E+01 -1.737634666142E+01 4.072996187750E+01 -2.676169332747E+01 1.239470921229E+02 -3.691743020385E+01 2.552829437078E+02 1.577072054780E+03
 -2.370369149435E+02 2.271676514965E+01 -1.506544176597E+02 -2.021944298256E+02 -8.251462778102E+01 7.579067043773E+01 6.232280636388E+01 -2.922584493436E+02 1.445463532069E+02 1.936781552071E+02 9.646929792171E+01 1.542558623410E+02 -5.411360603838E+00 -2.636982344277E+02 1.143958263909E+02 -1.320997576860E+02 -1.287216121481E+02 -1.989196947465E+01 7.072516749641E+01 2.002783180487E+02 4.848264858774E+01 1.026829557177E+02 1.114401215678E+02 2.861366216296E+02 2.121934916833E+02 -1.142835498966E+02 1.708191905447E+02 3.599189534135E+01 -6.886448861821E+01 1.472507948715E+03
 -2.377442495421E+02 4.133409463636E+01 1.283248309689E+02 2.381730025383E+02 1.374163361026E+02 -1.377676485048E+02 1.541778841150E+02 1.747840408657E+02 -1.490111682521E+01 1.904440494612E+02 -1.038988802887E+02 -1.445882842636E+02 3.664573067380E+01 5.278787496253E+00 1.961567425828E+02 1.747956348096E+02 -1.890203437712E+02 -5.284475600673E+01 -8.600475979566E+01 8.954938649882E+01 -1.163435149759E+02 2.552908058658E+01 -1.678113607335E+01 7.484619766448E+01 -7.314694161583E+00 -1.014882894462E+02 1.674908754540E+02 1.875192545860E+02 -5.891147979747E+01 4.739372505168E+01 1.504464219463E+03
 1.668728401678E+02 -6.406911857061E+01 1.467629135411E+01 1.874768761204E+02 1.957811804098E+01 -3.270190222002E+01 4.486727995732E+01 1.135045715203E+02 -1.674197329542E+02 1.393235047331E+01 9.974347464225E+01 4.422740194656E+01 -1.301305990092E+02 1.607009566593E+02 -1.330701175758E+02 -2.700657005757E+01 -9.312197669987E+01 2.001910578159E+02 1.789793939046E+02 -9.014702757575E+01 -9.947917910518E+01 1.515801082961E+01 -4.602884969638E+01 1.891801240721E+01 -2.067924014603E+02 4.960699933891E+01 -5.562352690082E+01 -1.495088024278E+02 4.431607405791E+01 2.031095759330E+02 -2.051826323312E+01 1.800811792077E+03
 2.365013756141E+01 -1.904097015704E+01 1.525895964960E+02 1.161725441301E+01 -8.776872537967E+01 6.718815559574E+01 -1.732174996851E+02 1.320394299827E+01 3.781206513914E+01 8.294951459608E+01 1.472636185764E+02 8.341874317060E+01 1.561808282194E+02 -1.092827401461E+02 1.624442890651E+01 -5.099622656067E+01 -2.523220917206E+01 1.198698062383E+02 9.507072478277E+01 -6.256324761548E+01 -1.603905848673E+02 -1.530703568662E+02 2.063169125648E+02 3.612949249739E+02 9.690183905742E+01 1.655718263041E+02 2.129691019604E+02 -1.103302666196E+02 -7.098982581959E+01 -2.030235592246E+02 -4.160149647516E+01 -1.021825815435E+02 1.679255386179E+03
 -4.451831682901E+00 8.126252443466E+01 -3.539535752353E+01 -1.214547630492E+02 -1.573898159610E+02 3.247899040418E+01 1.876848981338E+02 -1.746445715230E+02 1.466860560849E+02 1.100018908965E+02 -9.414182774059E+01 2.283460697154E+01 6.446554709801E+01 1.055376786477E+02 -1.471659359466E+01 -5.181733806858E+01 3.368878954225E+01 2.701085364783E+01 -1.470622250060E+02 -1.011893904706E+02 -1.598075795044E+01 -9.354326335572E+01 1.073101245484E+02 -8.345054144479E+01 1.469458940456E+02 -2.389128221451E+01 -1.840184731581E+02 -4.245030526546E+00 -1.676544384914E+02 -6.342544474809E+01 1.400390508590E+02 1.566656107875E+02 9.522199506227E+01 1.846072829593E+03
 -7.810738400829E+01 -2.311167835673E+02 1.889519209636E+02 -2.138161672464E+02 3.628808280097E+01 -1.327943198139E+02 3.007000276126E+02 -1.492630566708E+02 4.417411547751E+01 9.307470714189E+01 8.449932984143E+00 -3.287140945644E+01 -1.739536718802E+00 -4.533134343409E+01 3.502639083599E+01 8.294378711302E+01 3.818257944909E+02 -1.813414486633E+02 -3.848275206120E+00 2.166723195880E+02 3.800631681746E+01 3.405247833931E+01 -1.858967213158E+01 -1.503319447542E+02 -1.701096343897E+02 -1.924423509691E+02 1.065174468329E+02 -1.521938407370E+02 3.517605543155E+01 9.627169885696E+00 1.361306956919E+02 2.709637228780E+02 2.676845725929E+02 -1.863146268501E+02 1.343018830554E+03
 -1.531288750427E+01 1.620295028293E+02 9.619747341507E+01 1.990684943545E+02 -1.285867456859E+02 -2.127396560435E+02 1.010852716303E+02 3.103169668668E+01 1.217653849573E+02 1.384729978541E+02 -2.997173368805E+00 9.348085885005E+01 -1.010511494319E+01 5.624244643015E+01 -1.622747252751E+01 8.635196497278E+01 -1.313447193896E+02 9.160789321242E+01 2.675748422018E+01 -8.049639661692E+01 4.352843155340E+01 7.776780146624E+01 -1.516751468599E+02 -4.144028194796E+01 -1.422309418204E+02 -1.566596184673E+01 -2.010206718378E+02 -9.909664571280E+01 1.127709393804E+02 1.459973981477E+02 -6.181022090053E+01 -1.419342456582E+02 3.475675260719E+01 -2.268476399473E+01 9.243575802368E+01 1.837884509336E+03
 3.202425170594E+02 1.675925485198E+02 2.101771610568E+02 1.131113891461E+01 -3.976932294739E+01 -6.648012503345E+01 -1.308564847600E+02 -9.538098728414E+01 8.018499499927E+01 -1.670616076308E+02 -7.801968499014E+01 -1.344700100332E+01 1.419823795161E+02 -1.625789956913E+02 3.134076691581E-01 -7.417967015100E+01 4.414661579506E+01 -1.405764938000E+02 -3.624987733207E+01 1.139853497832E+02 1.031045456361E+02 6.089979947369E+01 -2.187181497312E+02 -2.340373204184E+02 3.249705990025E+01 2.918339507436E+00 6.655478227355E+01 1.069330086832E+02 2.393632866906E+02 -1.009034500184E+02 1.113163710435E+02 1.111939886550E+01 -5.007804927533E-01 8.719293136224E+01 7.527300527388E+01 -2.782815230984E+01 1.531927705951E+03
 3.508246854124E+01 -1.445082164616E+02 4.212936830653E-01 2.255241286228E+02 3.888316848856E+01 1.932967417490E+01 -1.352399920194E+02 4.190177508758E+01 -6.494480658080E+01 -1.661347764087E+01 9.472391233525E+00 -1.517804499617E+02 -9.272907916908E+01 -1.268886835168E+02 1.094262891380E+02 -3.988965938353E+01 1.025877355122E+02 -1.669094093778E+02 -1.344669905697E+02 -1.212065234155E+02 -7.707155291076E+01 4.048459312313E+01 -1.053506170438E+02 -8.797266353473E+01 7.915518224944E+01 5.881455886164E+01 -9.136715816991E+01 -1.336524435903E+02 1.264932833599E+02 4.069654524742E+01 3.903955245408E+01 -4.184760414602E+01 7.646362537333E+01 1.816432585239E+02 1.002078719554E+02 1.004760507446E+02 -2.113170905223E+02 1.609901451266E+03
 6.384347977271E+01 -1.271096041794E+02 -3.278001074987E+02 -1.898446183598E+02 1.275029490443E+02 1.071269165942E+02 5.942204040932E+01 -1.423710967704E+02 -4.593541751465E+00 4.521794302340E+01 -5.966096706480E+01 -7.156021864859E+01 -5.688094008704E+01 3.000937510877E+01 -4.731964512940E+01 -5.269884608069E+01 -3.675651733370E+01 2.411122333886E+02 2.011546321287E+02 2.382371914136E+01 8.742460764735E+01 -2.089104520661E+02 5.235957770741E+00 -1.412791923966E+02 -1.423839635776E+01 -1.165088410928E+02 1.203995888011E+02 -6.122628674575E+01 9.241713539230E+01 -2.318300204942E+02 1.093706333523E+02 -1.469069446368E+02 5.268833237487E+01 -2.541195810501E+01 -9.171602895442E+00 1.992193687261E+02 -1.128249909633E+02 -7.873853147605E+01 1.496853746245E+03
 -2.585487130228E+01 1.710849863673E-01 6.575854312951E+01 3.658977845681E+01 3.372158302560E+02 1.562311003951E+02 -8.337287265547E+01 -1.378520881367E+02 8.822051148073E+01 1.132047038967E+02 2.157097583053E+01 -1.276083916402E+02 3.242177635386E+01 1.470335164815E+02 1.228566879381E+01 1.347734964727E+01 2.937919938387E+01 6.750413787973E+01 -1.482098539064E+02 -4.991694166984E+01 -2.702084398789E+02 7.845364603912E-01 4.202592578821E+01 1.743445253912E+02 1.209026127516E+02 -3.003962979067E+02 -2.465500403569E+02 1.008123086822E+02 1.576807689128E+02 6.874716339774E+01 6.608750968484E+01 -4.405628772167E+01 6.633120230081E+01 6.814208249032E+00 2.317504734778E+01 2.097243802934E+01 2.701473596805E+02 1.208759904316E+02 -2.655618736859E+01 1.392173738897E+03
 -1.955671518625E+02 -3.365947833897E+00 4.417441523670E+01 -7.395192895720E+01 9.661971674349E+01 -1.325260448737E+01 -6.127949903879E+01 1.414361666998E+02 -1.705494458676E+01 -1.902800990028E+02 1.001543915236E+02 1.827109238816E+01 -3.923438972001E+01 3.210756344748E+01 -5.506810419123E+01 -7.147824847543E+01 -1.271941244155E+01 5.284496120488E+01 1.617795076331E+02 -1.793848171691E+01 -1.252394496450E+01 -5.239032583650E+01 1.871019920432E+02 -8.900513879885E+01 3.296022881124E+01 -7.993092712451E+01 -1.348472030765E+02 -2.807562100168E+01 1.309008169012E+02 2.168111883233E+02 2.851558208354E+02 3.902774951943E+00 -2.767154269016E+01 -4.111782717685E+00 -7.569702335895E+01 -1.080705064893E+02 3.384004277788E+02 2.239385203135E+02 3.115491591155E+02 -2.867626596326E+02 1.326921754844E+03
 8.695506813870E+01 7.613666864191E+00 1.114028028715E+02 1.365866682745E+02 -1.552018275277E+02 -7.413340248076E+01 -1.170085742195E+02 -4.248723982204E+01 4.813254627179E+02 1.349142863053E+02 -1.813025836493E+02 4.128764711720E+00 8.393836206561E+01 1.255321477492E+02 2.919324603808E+01 1.178260034774E+02 -3.323580918098E+01 1.030606670605E+01 1.747262636803E+02 2.245697832380E+02 3.748855955372E+01 -2.444642387489E+01 -1.366603757997E+02 2.442691726724E+02 -4.626807383239E+01 -6.249985085659E+01 -1.448080571117E+02 -1.000550656783E+02 2.284095576350E+02 -1.108071809616E+02 -2.599399724800E+01 1.519745316693E+01 -9.011538194820E+00 -5.312698057232E+01 9.684796884083E+00 -2.072953367869E+02 -2.213359216657E+02 2.082324305628E+02 -3.944539174096E+01 -1.039149016395E+02 1.279220162751E+02 1.497517642210E+03
 -1.685271246954E+02 -5.630939948324E+01 3.427087731749E+00 9.122821641943E+01 -4.738193407950E+01 -1.151867612766E+02 1.227106345748E+02 1.062294436522E+02 -1.112725469720E+02 2.233067997159E+02 7.667371778585E+01 6.338282396014E+01 1.257952527741E+02 -7.003795093057E+01 1.603173471569E+02 6.654492538148E+01 -1.067482875925E+02 1.493121579487E+01 -1.413308063318E+01 -3.024449214866E+01 -5.512028803802E+01 5.280640642979E+00 5.723041833893E+01 3.413031101132E+00 -5.078584761140E+01 6.118373177984E+01 -4.919015325947E+00 1.959687914908E+01 -7.621497639001E+01 -1.130079733097E+02 -2.145716601910E+02 -4.134507784289E+01 -1.214507503116E+02 1.164614880444E+02 8.369644528577E+01 7.220148566814E+00 -1.781354484579E+01 -1.417026964633E+02 5.444974844533E+00 1.297734111078E+02 1.965933201483E+02 7.133560820026E+01 1.937243357062E+03
 2.297649432358E+01 -8.462685845619E+00 1.316124934168E+02 -5.689026253473E+01 -6.863443821590E+01 -1.370752267807E+02 -1.097390491489E+02 1.293970919714E+02 -2.865841066092E+01 1.267824464783E+02 -3.421675048231E+01 -6.966228849465E+01 8.017918220680E+01 -1.042054142056E+02 4.021101669390E+01 5.972448109478E+01 -2.839407887664E+01 1.226435091937E+02 -3.422896324973E+01 -3.198842948047E+01 2.166015083621E+02 -4.194537473109E+01 1.866813759559E+02 -1.420596004062E+02 7.699698714102E+01 1.505364776418E+02 2.533794904085E+02 8.658263799686E+01 5.839702213325E+01 5.366485873467E+01 -2.168065903969E+02 3.116715617184E+01 -2.139699793832E+02 3.974871395649E+01 9.900878945834E+01 -3.276810010929E+01 9.016122899449E+00 2.118030044971E+02 1.351115083242E+02 1.647463194902E+02 -1.086196797296E+02 7.134226098288E+00 -3.785123437574E+01 1.753782423655E+03
 -1.199959947033E+00 -6.479512952430E+01 2.574193178375E+02 -7.266703281901E+01 -7.336462109754E+01 4.216985278236E+01 5.343644678589E+01 1.127624010617E+01 6.311602053584E+01 -6.097392630112E+01 4.768208979154E+00 -1.648809842639E+02 -1.670074937811E+02 6.890220514621E+01 -1.245359636302E+02 7.130991749379E+01 -1.441409017225E+02 -1.005143391461E+01 1.226986741990E+02 6.047221658039E+01 1.012199753352E+00 1.707909932528E+00 2.174798986064E+02 2.035712091194E+02 -6.215656584879E+01 1.177560184384E+02 1.800263779324E+02 -3.522718969088E+02 6.687146077538E+01 7.704190870401E+01 1.884809832704E+01 8.690077564772E+01 -8.479346014880E+01 -2.031325938580E+00 -2.851427876489E+02 8.275104303555E+01 9.364336179895E+01 5.470571198739E+01 1.707097553957E+02 1.365850269386E+02 -1.164827341592E+02 -7.289086807996E+01 3.153313069711E+01 -4.504381441839E+01 1.585139315389E+03
 -5.504284451817E+01 7.342020428975E+00 1.116688474572E+02 2.444396195026E+01 -4.244321103529E+02 -7.307493843435E+01 -8.576114384739E+01 6.211961470478E+01 1.348810646506E+02 1.008756204104E+02 5.041063348407E+01 5.757839264460E+01 1.430953229437E+02 2.560508348970E+01 5.259771174633E+01 -6.130968625916E+01 9.460109104749E+01 4.999889969610E+01 -3.119635404107E+01 -9.116535846016E+01 -2.194434117822E+01 -6.693582322525E+01 -6.073473951923E+01 -1.488247320341E+02 1.288810209799E+02 2.095483086800E+02 -1.863268196792E+02 6.776817940040E+01 -1.919215970291E+02 5.863920484119E+00 1.384657408865E+02 9.204236317755E+01 -8.653818518204E+01 -1.303742482357E+02 1.045647694653E+02 -1.093197760868E+02 -7.358812373311E+01 -8.988350434156E+01 2.763184657082E+02 1.954146708351E+02 -4.223543735134E+01 3.118751375125E+01 -5.631250010129E+01 -7.963190804165E+01 3.254846948524E+01 1.735079662016E+03
 1.571171416922E+02 1.493413872071E+02 1.306306592537E+02 -9.026006133453E+01 2.211099847097E+02 2.033870573971E+01 4.428548069571E+01 1.034452753620E+02 -5.207170910661E+01 -1.830055735732E+02 7.932817557385E+01 2.829397927580E+02 2.008506542225E+02 -8.608486417715E+01 -1.671108424881E+02 -1.639530778586E+02 7.087982014384E+01 -2.163504610739E+02 2.670264933432E+02 -8.551777028690E+01 -2.090374958376E+02 2.810983406364E+00 1.415662678649E+02 1.957495808448E+02 -1.407490583976E+02 -6.245915506502E+01 -3.369672575586E+01 -6.144374522942E+00 -4.680265482929E+00 2.962341871115E+01 -4.177400141961E+01 -2.204047849918E+02 -1.561518236156E+02 1.557563912656E+02 1.959435694569E+02 9.768932790562E+01 -7.791117742735E+01 -7.599659381522E+01 -8.988136752637E+01 -1.699483259677E+01 3.832393390772E+01 8.548733763969E+01 -9.693878438236E-01 8.365161446067E+01 -2.577141216204E+01 1.441328881353E+02 1.589663729030E+03
 -6.419015053782E+00 8.176474843097E+00 -1.051020389482E+02 1.870725761385E+02 6.958961564378E+01 1.995472566167E+02 -2.648224244582E+01 9.790623093810E+01 -8.568125335982E+01 -1.064347530285E+02 -1.029925537501E+02 -3.962057556361E+01 7.127376002759E+01 4.541696237925E+01 1.385907836692E+02 6.148967350666E+01 -2.201260157182E+01 -1.391397089052E+02 -1.320015304362E+02 -7.646724889856E+01 -9.688735564850E+00 1.509744185908E+02 9.671037938021E+01 9.880301108411E+01 -8.943168203989E+01 -3.047857134070E+01 -1.162287411706E+02 1.311882897306E+01 -2.896875465195E+02 1.513424229373E+02 -1.429261020219E+02 8.604510632136E+01 1.004043445349E+02 -2.939862072884E+01 -4.490800586567E+01 2.025971540107E+02 1.543939547863E+02 -1.386372267103E+02 1.114519383277E+02 8.332059170922E+00 2.661822761043E+02 2.066729772162E+02 -9.849058537951E+01 1.493748135190E+02 -1.298089687346E+02 1.819638333399E+01 -5.165957766959E+01 1.596114488818E+03
 -4.682430061389E+01 1.244476817292E+02 2.204874561950E+01 1.291716977749E+02 1.135073891834E+02 -1.341511061039E+02 1.187705386414E+02 -4.093179041679E+01 -5.799938341493E+01 6.541342957481E+01 -2.369235053922E+00 1.480693717904E+02 -1.026553427471E+02 -6.877715270945E+01 -7.971500500857E+01 6.280298419987E+01 1.054974673337E+02 -1.122666386521E+02 2.107583030244E+02 -1.550114622126E+02 4.208668563878E+01 3.752351763022E+01 -1.197250487338E+02 -6.963268055802E+00 4.934180320775E+01 -3.158225215376E+01 -1.647735058460E+02 -5.702845473159E+01 1.806887384544E+02 -1.668349189575E+01 7.171155157655E+01 -1.557702278111E+02 2.891887652304E+01 7.361400726137E+01 8.032893254098E+01 -2.070104741742E+02 -1.363726969357E+02 -3.556064309996E+01 4.537972494695E+01 -5.980307545638E+01 -1.516038145157E+02 -7.988268776478E+01 3.145576709795E+00 6.436686414850E+01 8.669635666275E+01 8.579659869114E+00 -1.444068662145E+02 2.364044265597E+02 1.797079356864E+03
 1.004162788822E+01 -9.322017962431E+01 1.366955462048E+01 1.588106474573E+02 1.364588576878E+01 8.338456360168E+01 -2.217654445173E+02 -1.388030097265E+02 4.606051612608E+00 7.514998161250E+01 1.913579181470E+02 5.202403302042E+01 1.737349509196E+02 -2.724897615068E+00 1.792845962444E+02 -6.620658428850E+01 1.070529314860E+02 1.546890654002E+02 -1.203314729721E+02 1.058616392537E+02 -9.177406788992E+01 1.870234327301E+01 4.320457140212E+01 -5.741279567267E+01 -3.781869368712E+01 -6.284053271722E+01 -2.861494645310E+01 5.908526010730E+01 -5.893415026990E+01 -9.520003885553E+01 8.264639860845E+01 -6.094114236342E+01 -2.211016583858E+02 -6.109861671159E+00 8.221772551679E+01 1.182928576016E+02 -5.938775492272E+01 -1.420582257140E+01 -1.931978070202E+02 -2.000974678817E+02 3.792166578332E+01 -1.361926435406E+01 -7.571906088343E+01 -6.708043367220E+01 1.934380250975E+02 -3.444505797020E-02 2.705253484672E+01 -2.537849369625E+01 1.158615421939E+02 1.663278969167E+03
 1.745115400859E+02 8.370278574317E+01 5.698763325668E+00 9.873014892856E+01 8.427799921660E+01 4.375897586751E+01 -3.171741710735E+02 -1.298637695621E+02 -3.902364765089E+01 -1.376057728229E+02 1.314986571423E+02 9.592364639650E+01 1.799677828906E+02 1.182024220506E+01 6.082264526531E+01 1.286289379303E+02 1.361427937535E+02 1.790382385337E+02 -1.508034181627E+02 2.370445160525E+01 2.484254029665E+02 1.280145717448E+02 3.228122925815E-01 -1.743031673370E+01 -2.148652547370E+02 5.098550492643E+01 1.093260866578E+02 5.743644699972E+01 -7.309685035097E+01 1.996478250392E+02 8.160260351853E+01 8.438202306911E+00 -1.576878437281E+02 -4.154919929315E+01 -4.702861021069E+01 7.258233496763E+00 1.926570627549E+01 3.724975949874E+02 1.081526265712E+02 -1.380234771369E+02 -9.558113148811E+01 -7.432067566794E+01 1.039009253701E+02 -2.576043455978E+02 3.325133470751E+01 6.003396072769E+01 1.556415191577E+02 -1.281504167892E+02 1.984862011740E+02 -4.046264553106E+02 1.337011131148E+03
 1.336379149365E+02 1.166088186763E+02 -8.563706416758E+01 8.170524726761E+01 1.112907220304E+02 1.467838196884E+01 1.979714143480E+02 1.187687149997E+02 -1.928272072439E+01 -1.299798442108E+02 -2.823916970014E+02 2.895805227063E+01 2.269972741235E+02 -1.110151610553E+02 2.391773308979E+02 1.561537006949E+02 2.991743288295E+01 1.306154855067E+02 1.527409401628E+02 -5.411680079935E+01 9.632160757341E+01 -4.633366511169E+01 2.689176717952E+01 1.627994154778E+02 -1.896099372484E+02 -1.041812481349E+02 -3.712131428168E+00 -2.455962117324E+02 -4.257381465789E+01 1.028993545302E+02 -4.717975947599E+01 2.198460113082E+01 -9.193245181899E+00 -8.166701952435E+01 -2.120933300905E+02 3.842473249426E+01 2.633089129076E+01 6.345310811839E+01 3.567508361805E+01 2.291663339751E+02 1.111667973687E+02 4.442626700078E+00 -3.961017911473E+01 4.013437838661E+01 -2.365687468839E+02 7.918139381972E+01 -8.753182234584E+01 -3.697158809062E+02 7.632639744127E+01 6.766192826666E+01 -1.677601541610E+02 1.528895299518E+03
 1.811641067685E+02 1.869551816807E+02 -2.462396279203E+02 -7.188456780777E+01 -5.225024749552E+01 1.128509653138E+02 4.791376757557E+01 2.976841919550E+01 -2.147717342428E+02 -1.459192256677E+02 -2.110269658220E+02 1.641121741175E+02 -8.245414376413E+01 1.879271785056E+01 -7.120178654238E+01 9.181670910382E+01 -1.209691943261E+02 -1.654962759899E+02 -2.158608643304E+02 1.033510676204E+02 -3.745587067742E+01 -9.344512474164E+00 -1.787610576901E+02 3.385692109374E+02 1.027370078861E+02 2.040650365298E+02 -1.529596923417E+01 1.338232647698E+02 -3.169622286080E+01 -1.121555696083E+02 7.352189612890E+01 2.058095067093E+02 1.177983524052E+02 -8.006611647622E+00 1.343472016241E+02 -5.410336504237E+01 -2.996978362107E+01 1.923594743758E+02 2.745249595387E+02 2.748384414682E+01 -1.019135648871E+01 -2.032176972272E+02 3.236890777384E+01 1.178222464647E+02 3.954712935378E+01 9.299444724698E+01 2.322866307071E+02 -1.822105261971E+01 -4.293437770316E+01 2.517364766564E+02 -2.829118335517E+01 -9.636129459881E+00 1.042189822401E+03
 -1.675433147487E+02 1.277743589304E+01 1.064792002320E+02 2.752169654290E+01 1.749055379444E+02 -7.956965818264E+01 -2.620462834504E+01 1.109626517024E+02 -1.191869464770E+02 -1.735043645635E+02 -9.362507238282E+00 -9.026266846441E+01 2.717052832025E+00 -2.820789005106E+02 1.747405062033E+02 1.936855367910E+01 7.526096014221E+01 -6.850606966419E+01 3.654381195604E+01 1.319630069232E+02 -6.355285924760E+01 -9.735858480831E+01 -7.698500212946E+01 3.099443716825E+01 1.515234593802E+02 -7.638004994248E+01 3.180393908865E+02 8.046577273933E+01 1.521946265893E+02 -7.145783234696E+01 -1.198628028732E+02 9.296509509885E+01 -1.840164317728E+02 1.877293776962E+02 -2.828890247501E+01 -4.056848432838E+01 -3.247653505420E+01 -1.678727228315E+01 2.388325191205E+02 1.459589037979E+02 -3.475109323280E+02 1.848116959476E+02 -2.561252568934E+01 -1.972106172710E+02 1.329662964021E+01 2.579256957862E+01 4.592791773626E+01 2.566115049130E+02 -1.154052753293E+02 8.449331585582E+01 6.401583123920E+01 1.242542717890E+01 -1.038466589467E+02 1.536412105546E+03