#BIOSYM hessian 1
@Type: Hessian Update
@Units
 distance: 	A
 energy: 	Kcal/Mol
#header
@natom 19

#label
L1      L2      L3      L4      L5      L6      L7      L8      L9      L10     L11     L12     L13     L14     L15     L16     L17     L18     L19

#element
Li Li Li Li Li Li Li Li Li Li Li Li Li Li Li Li Li Li Li

#matrix
57
 3.519012258352E+01
 -7.923213158147E+00 2.291828551526E+01
 -1.016499968900E+00 5.652383652777E-01 4.547930601513E+01
 1.399422193215E-01 3.833917925527E+00 -1.269852532666E-01 1.990846173285E+01
 -5.834373980938E+00 4.552918555687E+00 1.078838717509E+00 7.310645270697E+00 1.238295727326E+01
 5.478026744418E-01 1.576857876426E-01 -9.682330504409E+00 -1.887012936711E-02 -7.946545859382E-01 4.750162198991E+01
 5.895861945443E+00 -5.827742271325E+00 6.078270655916E-01 -1.778314167891E+00 1.387502976659E-01 -1.607438006702E-01 7.259676836791E+00
 -1.065625831483E+00 7.959922410861E+00 6.709930723716E-01 -2.025391833914E+00 -2.416481803687E+00 -1.014133901426E-01 -3.235683128616E+00 2.650351744781E+01
 1.272167847748E+00 -5.687716090118E-01 -1.030864348382E+01 -1.301827267625E+00 -8.798198077067E-01 -9.503221811048E+00 -4.083025126411E-01 -7.227709206607E-01 5.128085691459E+01
 -2.358017954590E+01 1.017295738377E+01 1.423610241131E+00 3.856941349050E+00 7.782831363135E+00 -8.139282386679E-01 -5.553083346965E+00 6.689081672872E+00 -1.814897759725E+00 3.689739799348E+01
 9.454120031682E+00 -9.240218682494E+00 -6.755616987971E-01 1.898801875246E+00 -2.672670122177E+00 1.347068715909E-01 2.505473611010E+00 -2.723250859123E+00 1.071713240213E+00 -8.343615630828E+00 2.332212586140E+01
 -1.943498584003E-01 3.078316414380E-01 -9.800417876661E+00 1.108350160231E-02 -1.788866063059E-02 -9.256489550819E+00 -2.268017271925E-01 2.392374706826E-01 -9.642138694081E+00 6.032852255335E-02 -6.640151980491E-01 4.542486175934E+01
 4.746652564131E+00 1.508467735303E+00 7.010729617902E-02 -2.691678732239E+00 -3.759712304878E+00 2.666469093575E-01 7.857271360934E-01 -6.086756620024E+00 1.301864496348E+00 -2.925520178330E-01 4.035437470404E+00 2.482254439885E-02 1.948754707817E+01
 7.334805640063E+00 -2.574124129037E+00 -8.912730021550E-01 -3.523623268804E+00 -5.892560786278E+00 6.240328917505E-01 7.091958228211E-01 -2.912661719660E+00 1.054054344955E+00 -6.169937322233E+00 4.554094170925E+00 1.698168434950E-01 7.437775778484E+00 1.239565915712E+01
 5.071330347860E-01 -3.892556467602E-01 -8.903684582941E+00 6.323040014098E-01 1.767686562605E-01 -9.425791731555E+00 2.481753825590E-01 -2.411388952144E-02 -9.294519571794E+00 -4.245252964255E-01 6.046321132221E-01 -9.327438236107E+00 -5.623261751706E-01 -5.860516340726E-01 4.705680640251E+01
 -5.379266231179E+00 2.615494651059E+00 -7.919928581699E-01 4.637401958363E-01 6.548865141722E-01 4.825365535798E-02 -2.267687927022E+00 1.481295668122E+00 2.537175622228E-01 5.642985772574E+00 -5.660964457818E+00 5.625445881373E-02 -1.781167739319E+00 1.739684283522E-01 -2.525301324037E-01 7.039971374372E+00
 5.589676303150E+00 -2.232357250532E+00 -2.865130657907E-01 -6.383039313527E+00 -2.629686026144E+00 3.022901363399E-01 1.227035263547E+00 -6.837866787277E+00 3.492534298096E-01 -4.162725214777E-01 7.784609572450E+00 -2.945520880675E-03 -1.801132759964E+00 -2.722316862472E+00 3.328474798607E-01 -3.122346455819E+00 2.652878319774E+01
 -1.414575668406E+00 3.373135387790E-01 -8.544986275945E+00 7.264136475018E-01 2.563543776773E-01 -9.873309843628E+00 -2.676248378695E-01 3.551346626428E-02 -9.259046776514E+00 1.849422982150E+00 -2.734772608648E-01 -9.291372003083E+00 -1.077487410858E+00 -1.898042758216E-01 -1.046949072987E+01 8.514683639891E-01 -4.110667207570E-01 5.037474995205E+01
 3.750472739718E+00 -2.370718769591E+00 -2.458572890536E-01 8.615582711531E-01 -1.952382660021E+00 1.009545833305E+00 -8.221992860320E-01 -1.652168581186E-03 6.241339825092E-01 -4.098410123641E+00 2.082260534240E+00 5.857211410699E-01 1.798758291640E-01 2.503720451532E+00 8.351153908318E-01 -3.637181855692E-01 -1.190919490615E+00 -3.323301733892E+00 5.019681667214E+00
 2.778154448663E+00 -1.208640357790E+01 1.022123826771E+01 1.719373474021E-01 -1.835271475721E+00 -6.707865192039E-01 3.935366011176E-01 -2.796594272325E+00 1.643085381943E-01 -3.343372202347E+00 4.713929507876E+00 -6.412269896809E-01 1.295280408383E-01 2.194446947076E+00 -4.266880455833E-01 -1.656252913691E+00 -2.875194667507E+00 -1.023418763500E+01 4.041113913004E+00 2.015403585249E+01
 3.200478710222E-01 5.414636760880E+00 -8.550455187896E+00 6.228894222677E+00 1.054791559762E-01 5.250775778918E+00 -3.054500128969E+00 2.240763492381E+00 6.808333547834E+00 -4.110214686697E+00 1.536490341949E+00 5.511475385997E+00 1.832413934546E-05 2.491432284883E+00 3.654266258973E+00 -1.994106932652E-01 -4.140291582324E+00 -1.481105029182E+01 3.169529356664E+00 1.023494952627E+00 2.527631446199E+01
 -1.173220521647E+01 9.647902939115E-01 -1.012596858439E+01 -2.422883821952E+00 -1.949690317698E+00 4.954460169534E+00 -9.138381755990E-01 -2.209218316195E-02 1.595669522216E+00 4.449388746677E+00 -1.933817063652E+00 1.408414010840E+00 -1.373986390885E+00 -1.455028561404E+00 1.264313104100E+00 1.656649440670E+00 -3.486781826617E-01 2.313570468861E+00 -2.445927943275E+00 -2.350440330885E+00 -1.295449402001E+00 1.341762230574E+01
 9.272207658745E-01 -2.122808137436E+00 -2.619959950449E+00 -3.456334132838E+00 -5.289025116205E+00 9.103288892325E+00 1.174148461573E+00 3.136717066854E-01 -1.679723850423E+00 -3.209396625137E+00 1.540919751272E-01 -1.348715584368E+00 2.049996854047E+00 8.155736342739E-01 -1.758707917623E+00 -5.466390734989E-01 1.643604868820E+00 -1.241838092971E+00 -2.067639216312E+00 -1.676395079633E+00 1.848615839498E-01 5.503336754473E+00 8.596063977041E+00
 -9.798876238372E+00 -1.273469560820E+00 -7.431252469922E+00 4.049217886742E+00 6.579797434061E+00 -1.086708868175E+01 2.475318673119E-01 -3.783591318455E+00 5.319286930840E+00 3.520706245480E+00 3.204607881254E+00 4.316358501028E+00 -5.239703534396E+00 -2.136193736905E+00 4.267821543594E+00 2.754481832929E-01 -2.789919922689E+00 4.348717805050E+00 -1.973638520951E+00 3.013182264413E+00 -1.138830542169E+00 5.468773341173E+00 -6.157224797552E+00 2.361702344842E+01
 -2.376954522167E+00 3.156034315936E-01 1.796661572680E+00 -7.303085716799E+00 -2.510820306955E-01 -1.033872064591E+01 -1.167440133880E+00 4.271362177440E+00 5.101472974784E+00 1.531159359928E+00 -1.073036092440E+00 1.550200245129E+00 -1.983656375250E-01 3.547953288201E-01 1.107391232956E+00 3.372268680873E-01 -1.936651470979E-02 1.524389406167E+00 -5.359780780927E-01 -2.107993054258E+00 -4.221584068847E+00 -1.676006885513E+00 -2.164846875784E+00 -7.709134571703E-01 1.064888023875E+01
 -3.665397190487E+00 -1.167293370774E+00 3.502905870490E+00 7.937492352947E-01 3.326209441185E+00 4.211794250840E-01 1.462424733067E+00 -5.508820044517E+00 -9.501832323437E+00 3.717306484599E+00 -4.079934706292E-01 2.275412778846E+00 -3.333466289090E-01 -1.395379277985E+00 2.004066481434E+00 1.298652956963E+00 9.946236414418E-01 1.602492515933E+00 -8.925656482321E-01 1.018963576200E+00 -4.139219748381E+00 -1.322165584936E-01 -2.026434114640E+00 2.033422995315E+00 -1.224547588272E+00 9.659926923211E+00
 -6.257631493768E+00 -1.642298023801E+00 5.171602833952E+00 -6.993575684006E+00 2.796786378551E-01 -8.158320888952E+00 -3.153097862285E-01 -7.757189867307E+00 -8.211011514166E+00 3.489797475829E+00 -3.500301710670E+00 4.998360695512E+00 -4.962778610875E-02 1.145530659445E+00 3.805254590963E+00 3.330517425284E+00 3.529594147702E+00 3.816771987977E+00 -1.110552198101E+00 9.463366900617E-01 -7.188565867589E+00 1.919173375538E+00 -3.140495038481E-01 -7.778883610100E-01 4.903756197219E+00 8.396790394864E+00 2.120514962920E+01
 -3.190807408795E+00 7.622331525865E-01 4.247839112975E-01 2.390204649131E-01 2.019239101078E+00 -8.246644242549E-01 -3.469416143406E-01 -1.258818893404E+00 3.190438785957E+00 3.777882428438E+00 -1.616078836695E+00 -8.483825279902E-01 3.623580820823E-01 -1.354529291128E+00 -6.677340215908E-01 -4.118282184784E-01 2.608072691133E-01 -8.103871320276E-01 -1.874771554768E+00 -4.427545751047E-02 -1.680270117712E-01 9.846588498607E-01 3.451186442889E-02 2.075891727843E+00 2.093041533008E-01 5.798074695730E-01 4.378150833508E-01 3.115222405586E+00
 2.073506905960E+00 -2.742017282524E-01 4.958886136430E-01 6.898121232223E-01 6.915064246228E-01 6.087923286301E-01 -2.033321035408E-02 -4.792540306403E+00 1.012497019823E+01 -2.805529876662E+00 -7.074766886432E+00 -1.064236867015E+01 2.326314774589E-02 -2.395840094862E-01 4.767809288300E-01 -1.191346332234E+00 -1.617638356870E+00 2.172471742975E-01 2.025479745586E-01 -4.797064621016E-01 -1.610737069610E+00 4.098628795423E-01 1.225432594721E+00 -2.147618639297E+00 6.744760730865E-01 -4.389390360288E+00 -1.120495745620E+00 2.572005012510E+00 1.678876236146E+01
 3.949446430590E+00 -1.087980876314E+00 5.601174150835E+00 -6.846080457172E-01 -2.342998670890E+00 4.760480380461E+00 7.836959702846E-01 5.523467603162E+00 -1.148068299646E+01 5.299415637548E-01 -5.973445296266E+00 -9.788603451996E+00 -5.823278256045E+00 -4.733367871636E-01 4.544709097131E+00 2.446734692428E+00 -2.869118367547E+00 4.120759429341E+00 -2.855176317905E-01 2.127768179519E+00 -1.808045660037E+00 -1.872129363365E+00 1.733588741000E+00 -5.779954917523E+00 -1.895425350821E+00 -8.427047527014E-01 -1.958628115323E+00 -2.087272904134E+00 1.886882774581E-01 2.593262267028E+01
 1.583512833595E+00 2.385284655274E-01 -1.671211949043E+00 -1.669923270648E+00 -9.367677233566E-01 -1.347373763099E+00 3.884750405241E-01 -6.519612610617E-01 -1.942607144219E+00 -9.026794260226E+00 -1.717681648155E+00 1.061365114935E+01 -1.713937490004E+00 -2.329436384936E+00 -5.415984673554E+00 3.535159816548E-01 -1.463030597999E-01 -1.562881289198E+00 -2.178382241980E-01 2.827549707264E-01 2.214994093824E+00 8.837670708485E-01 1.268742801236E+00 1.021647454683E+00 8.859638772821E-01 -1.576944523347E+00 9.689251420109E-01 -1.994004319248E+00 -1.253421025827E+00 8.709668126165E-01 1.321282318112E+01
 -5.452786236959E+00 2.778602374864E+00 1.085794227815E+00 7.846401905852E-01 6.144874588796E-01 1.735597825044E+00 -2.127478385715E+00 2.381206279287E+00 9.611989429093E-01 3.038444097452E+00 -4.305953654525E+00 2.735519346312E+00 -2.584044819419E+00 -5.003838479937E+00 -8.886881595395E+00 2.460652814242E+00 -1.979982436248E-02 2.033724343317E+00 3.615654637398E-01 -9.572816722447E-01 -1.920781162558E+00 1.590690199259E+00 1.692325193728E-02 -1.685551513152E+00 1.049783859085E+00 -3.102642150223E-01 4.504352721560E-01 -1.461755959707E+00 -1.280932513746E+00 -1.090541449034E+00 5.617305059651E+00 9.250875286306E+00
 -2.621881560565E+00 -3.833745918446E+00 5.324002036139E+00 4.138561523681E+00 1.507083592532E+00 4.328323744263E+00 -4.732755121272E-01 2.522939912626E+00 5.948528830363E+00 9.761575614807E+00 2.211532196199E+00 -8.625116999752E+00 -3.733080040255E+00 -5.971964230442E+00 -1.129919095568E+01 2.143277910995E-01 4.970480738354E+00 4.288315892427E+00 -2.343009009736E+00 3.970927836697E+00 -5.583582050764E+00 -9.387173401931E-01 9.017097302990E-01 5.719357621544E-01 -2.139320695377E+00 -4.438150894860E-01 -5.101778539671E+00 2.297937569892E+00 -2.849362023366E+00 -5.725865207940E-01 -5.065068450414E+00 5.229219673014E+00 2.678898695068E+01
 4.324582387552E+00 -2.953805738105E+00 -2.396850672697E+00 -3.410281712668E-01 -6.055249993528E-01 -1.424557717417E+00 4.784407507119E-01 -4.176690032951E-01 -1.921768228549E+00 -5.761405482341E+00 2.324799647189E+00 -1.360127453680E+00 -6.820510392007E+00 6.723942118343E-01 1.100326608497E+01 -1.439909730797E+00 4.327804952372E+00 -4.494156692018E+00 8.722364944843E-01 2.399754919880E+00 2.668446683195E+00 -7.437442237842E-03 3.381036429624E-01 2.238235183663E+00 1.839881756281E-01 -7.924427832053E-01 8.119670389354E-01 -8.372079089422E-01 -1.160306271186E+00 3.418546587931E+00 -1.510866950098E+00 -3.396622210095E+00 4.976467183110E-01 1.144859358583E+01
 -1.292373553214E-01 2.185129804875E+00 -3.060886252703E+00 6.643918922397E-01 3.404403732539E-01 -2.399544820159E+00 2.884395698226E-01 1.252306670297E+00 -2.206913635880E+00 -4.699813046347E-01 -4.114002170439E+00 -2.099583288360E+00 2.251479000295E-01 1.800903248973E+00 -4.536675120615E-01 2.549989575956E+00 -6.945229598968E+00 9.644639563433E+00 -2.111011068305E-01 -5.310213579007E+00 6.788108945811E-01 -1.029975557905E+00 -8.971181958098E-02 3.483848340412E-01 5.260679355078E-02 1.409117693864E-01 1.245706418529E+00 -7.259825452352E-01 1.547782864927E+00 3.059411031897E+00 2.805552976866E-01 -4.666363470641E-01 -3.322073226455E+00 -7.820258309123E-01 1.086982678836E+01
 -2.136849418355E+00 3.807007952658E+00 4.473816075493E+00 -9.538475264269E-01 -1.337103275703E+00 4.562120915444E+00 -2.263652314950E+00 -2.548485536954E+00 4.021363208259E+00 5.518960934048E+00 1.357580120931E+00 4.524299088349E+00 7.487202460102E+00 -6.973800335474E-02 -8.103182682865E+00 -7.648840915528E-01 7.591447529680E+00 -7.789985245344E+00 -6.419215554368E-01 -7.592527022802E-01 -7.284601501928E-01 -2.957226273479E-02 8.578521046420E-01 -5.603159975439E+00 -8.600140704259E-01 3.155759672154E-01 -3.071341841549E-01 1.272902763646E+00 -1.483261534713E+00 -6.432829506348E+00 -1.001972753034E+00 6.365860239936E-01 -4.206141007011E-01 -6.279998732457E+00 -8.284250440200E+00 1.989434690188E+01
 1.516471400112E+00 -7.798846030720E-01 -1.640786015467E+00 7.275821566744E-01 -9.246708914219E-01 1.960649611580E-01 -9.564751541044E-01 -2.039248146620E-01 -1.656278783124E-01 -1.382344555767E+00 1.124753229417E-01 -3.583965233255E-01 -5.162553689066E-03 1.436876909784E+00 -1.907148729255E-01 8.824974558693E-02 -9.328688519157E-01 2.663688463942E+00 2.020677953417E+00 6.794844181009E-01 -2.248630586235E-01 -1.364129442134E-01 -6.991532832572E-01 -1.369151101144E+00 -1.035238438107E-01 -4.630178169035E-01 3.974942104467E-01 -1.260455727304E+00 1.747178015221E-01 3.429867993146E-01 -4.953047926482E-01 4.879397156047E-01 -1.514727694310E+00 3.807742117256E-01 3.938260950184E-03 5.654663996307E-01 2.795922277146E+00
 -6.078289049085E+00 -3.382498307742E+00 -1.029647806014E+01 7.946352473483E-01 1.215363069633E+00 2.065654539352E-01 -2.231340634921E+00 -4.530314384855E-01 -2.777321558759E-01 5.282220039678E+00 -3.698034878077E+00 7.023235637106E-01 -8.877068054504E-02 -6.566878957722E-01 4.207083382401E-01 1.039279841119E+00 -5.943879104522E+00 1.041923478694E+01 -4.432751146235E-01 -5.269392825180E-01 1.291232926160E+00 1.705470237199E+00 2.652675075163E-01 -4.495007961753E-01 1.099783972555E+00 5.365394910030E-01 2.346312666177E+00 5.429965161794E-01 -1.057927473578E+00 3.983784114620E-01 -1.265948095873E+00 -4.576878910766E-02 -5.043592602950E-01 -1.954011062297E+00 1.405689815766E+00 1.162896289713E+00 2.833345775528E+00 1.786335719119E+01
 2.198205217450E+00 -7.463233012436E+00 -1.073412719013E+01 -5.158790182937E+00 -4.535306386244E-01 5.082487849991E+00 3.311681204673E+00 -3.523054928952E+00 4.826851539063E+00 1.335186230301E+00 4.906387131873E-01 4.942494075683E+00 -1.026649710830E+00 -2.348717777506E+00 5.097402860218E+00 -5.661723282395E-01 5.780733987317E+00 -1.131190429829E+01 1.390244541241E+00 -1.363242150983E+00 2.159503728420E+00 -1.908245419012E+00 9.665983389217E-01 -4.406480078541E+00 1.546493015904E+00 1.107909966254E+00 1.533386437051E+00 -2.218634230463E-01 6.270246868521E-01 -3.352047553776E+00 -4.369486216880E-01 3.959037694162E-01 3.573593637806E-01 5.157764523744E-01 8.327117610018E-01 -3.533355171293E+00 -1.563563081281E+00 2.697333813139E-01 2.554519456081E+01
 -6.589863909823E+00 -3.018343531864E+00 1.092883411338E+01 -1.894332845743E+00 -3.031749987037E+00 -5.498594102490E+00 1.105606447008E+00 -1.846812483474E-01 -1.381433713623E+00 -6.147267385036E-01 2.168348761056E+00 -1.343049307177E+00 -1.885231565051E+00 -4.721317018435E-01 -1.610742735504E+00 -4.883449394283E-01 1.970754032599E-01 -2.333594411421E+00 1.028541992986E+00 2.316271894210E+00 9.640863285548E-01 -2.113481087045E-01 -1.555913614007E-01 -3.511907232414E-01 8.126883274871E-01 4.554272532050E-01 1.462953963953E-01 -2.907012768943E-01 -2.036122880371E+00 -3.079911504887E-01 -1.689419311358E+00 1.787406153296E-01 1.615638128023E+00 -3.165868222373E-01 -1.056727316026E+00 -6.613017296846E-01 -1.620318971445E+00 -2.616165615140E+00 1.050278312020E+00 1.343894804262E+01
 6.343601844034E+00 -7.243007189558E+00 2.899483433223E+00 -3.004228381412E+00 -6.363289745475E+00 -9.186347203985E+00 3.429796190419E+00 -1.107016639212E+00 2.493620167971E+00 -8.555777984482E+00 5.399811031193E+00 1.408238891646E+00 1.436673140980E+00 1.944812406908E+00 1.308588204733E+00 -2.728953058406E+00 3.168224681851E+00 5.444158000834E-01 -1.388972093699E-01 4.066486104539E+00 -5.195243655521E-01 -1.059564226854E+00 1.264357205622E+00 1.883181681491E+00 -6.962625169951E-01 -1.712197487273E+00 -2.801933441186E+00 -1.720946341748E-01 -1.295302514622E+00 1.044123984901E+00 5.210490967130E-01 -3.378263984598E+00 9.085521349415E-01 1.499532140451E+00 -1.308743583502E+00 -7.777639690982E-01 -1.870230908838E+00 -3.547464066666E+00 -5.919320036216E-01 6.821899325356E+00 1.209759563471E+01
 9.344769626550E+00 1.682882343257E+00 -9.585923729794E+00 -4.552902414414E+00 -6.217982230270E+00 -1.038939627962E+01 -1.963888870325E-01 4.411670196367E+00 3.140230374858E+00 -3.301879010014E+00 -3.689329473951E+00 4.523978063721E+00 5.825095784627E+00 1.804949352084E+00 5.828373449136E+00 -2.702256972906E-01 1.652810661625E+00 6.690851324484E+00 8.678878297840E-01 -2.160587237584E+00 -4.018458552806E+00 6.050243795706E-01 -4.344217791690E-01 -1.265742417651E-01 1.474668003476E-01 -3.399498736255E+00 -2.787951823207E+00 -1.582897611518E+00 1.805471876082E+00 5.099546217172E-01 1.322198520804E+00 -8.013677123785E-01 -6.431856830219E+00 -1.656085209819E+00 2.472079074559E+00 1.024845485755E+00 1.378084550699E+00 -9.032476893489E-01 -9.106752845117E-01 -5.004782724978E+00 5.001265876898E+00 2.361300090960E+01
 -4.634384498293E+00 1.634587297769E+00 -7.200794347845E-01 -7.338192839073E+00 3.090521186366E-01 1.045255495684E+01 -1.359536889595E+00 4.491217820716E+00 -4.658853145418E+00 3.895538155736E+00 -2.254493019199E+00 -1.767514375795E+00 -2.677925628470E-01 -3.588066769106E-01 -1.920933682050E+00 4.128646705697E-01 1.966168283382E-01 -1.920329424070E+00 -5.553805007732E-01 -3.596881115734E-01 -2.725431692814E+00 1.983928907300E+00 1.358668493271E-02 4.627122988790E-01 8.686789078405E-01 1.158965901107E+00 -3.938846217249E-01 4.235096412095E-01 -1.396976771229E+00 -2.393839652707E-01 -1.115289177546E+00 6.659964977970E-01 -4.802595122017E-01 -2.323221056635E+00 -8.899698111308E-01 1.395919947102E+00 -5.512489600596E-01 -1.058615227587E+00 2.595168606570E+00 -1.795721504617E+00 -3.697454767374E+00 7.330297845022E-01 1.151787238380E+01
 -1.357779392377E+00 -2.792753590049E+00 -1.630918056193E+00 1.274943861517E-01 2.373699108839E+00 -6.200798320444E-01 2.218845088673E+00 -6.125825861840E+00 8.972335070075E+00 9.364983236893E-01 1.475823482938E+00 -2.593341853246E+00 2.597046291155E-01 -3.784454657119E-01 -2.352780526516E+00 5.410739564793E-01 1.353584055550E+00 -2.204107132353E+00 -5.981297626920E-01 1.078417187083E+00 -9.109223060376E-01 3.621442647772E-01 -1.954326632149E+00 3.643474929842E+00 3.900051355470E-01 1.530638065133E+00 -3.966133676644E-01 8.405668979349E-01 -1.811852381721E-01 1.349737651383E+00 -7.201420082579E-01 -7.414449086627E-02 2.047075191402E+00 -8.846024401568E-01 -2.599356427407E+00 1.333090689754E+00 1.236790697055E-01 3.159052563720E-01 3.422144413689E+00 3.598207902481E-01 -2.962769042187E-01 -3.274423059691E+00 -3.601690368707E-01 1.040326579944E+01
 4.109625425640E+00 2.365225142631E+00 5.021470864253E+00 8.023397918818E+00 3.611536837261E-01 -8.368551514275E+00 -8.880790595059E-01 7.621630990216E+00 -8.189280883386E+00 -6.465816109446E-01 2.198402614496E+00 4.915865532573E+00 -1.116675868611E+00 -1.730026835080E+00 4.306353212494E+00 -1.892186312909E+00 -3.313430265236E+00 3.691658728653E+00 3.328199706115E-01 -7.503442483884E-01 7.098311054161E-01 -1.765527188500E+00 9.306073749290E-01 -3.209526553074E+00 5.468268695902E-01 -5.002024174620E-01 -3.935190788536E-01 -1.045470052521E-01 6.733857106240E-01 -3.346141353158E+00 -1.139746551090E-01 1.341011743042E-01 6.376828678982E-01 1.201829908125E+00 1.316168143233E+00 -3.446984346057E+00 2.824075593589E-01 -1.514181175428E+00 -6.192333259405E+00 -7.433386038648E-01 3.625352372815E-01 5.399456201344E-01 -6.011347515133E+00 -8.472205877218E+00 1.970756016468E+01
 -3.618219016323E+00 1.740834607476E+00 1.317606819296E+00 7.428607840305E-02 2.647388098573E+00 -2.310028534737E-01 -7.204204882593E-02 -9.132019265761E-01 -3.271282298146E+00 4.271567049794E+00 -2.832164136767E+00 8.624594848026E-01 6.318859013165E-01 -1.894830373951E+00 3.767234908318E-02 -6.399682874756E-01 -2.533242871343E-01 6.342611813670E-01 -3.433247564728E+00 -1.139609218472E+00 -6.733667207008E-01 3.678821355122E-01 7.495447561662E-01 1.792570684476E+00 1.104385387368E-01 7.079546608170E-01 -1.936360131837E-01 2.117741926360E+00 2.301140702527E-01 6.020781627563E-01 7.040339734319E-01 -7.681833132405E-01 1.574450813311E+00 -7.621846104674E-01 -1.286533881359E-03 2.744347148642E-01 -1.774747319668E+00 1.063188268188E+00 -8.178658857316E-01 -7.869783166691E-01 -1.706224076820E-01 -1.346345318090E+00 6.079802708536E-01 -2.928786378186E-01 -3.250696407848E-01 5.158608411226E+00
 -1.013501373767E+00 2.021568843785E+00 -3.560090576824E-01 -3.569650304296E-01 1.165430070253E+00 -5.541436604212E-01 -7.188479378047E-01 -3.882402018200E+00 -1.007382844623E+01 5.367505790214E-01 -9.757166088188E+00 1.044691830073E+01 7.161616736160E-01 -7.300842554899E-01 -9.129052614003E-01 -3.774129479415E-01 -2.103659488749E+00 -5.423630081314E-02 -9.085208821097E-01 -3.519798219452E+00 -2.051868558835E+00 -9.457830949347E-01 -2.802094891031E-01 -1.089751971053E+00 -4.636129039779E-01 2.443075199733E-01 -2.401125086987E-01 6.578491704290E-01 1.373206940874E+00 -2.100053672174E+00 1.305735005285E+00 1.426088086919E+00 -6.134342884653E-01 -2.153877463677E-01 7.014701051517E-01 -6.085155980606E-01 -4.324951949184E-01 6.952062589591E-01 9.653436556200E-01 1.450744228110E-01 -4.968664777943E-01 2.641011481603E+00 1.782900799560E+00 -4.300747555393E+00 1.646017174263E-01 4.083027154914E+00 1.822521272913E+01
 -2.553120824151E+00 3.435020272581E-01 4.513055039952E+00 1.254998703847E+00 2.312777727195E+00 4.692874692752E+00 4.140325259546E-01 -5.116486778496E+00 -1.304067276525E+01 -1.824509558404E+00 6.664950412104E+00 -9.700641321056E+00 5.282681161622E+00 2.492025070959E-01 5.558831002929E+00 -3.582343163349E+00 2.483781956381E+00 6.156174538474E+00 4.250728276168E-01 -1.695791380996E+00 -3.954381377007E+00 4.730056605177E-03 -1.271769592836E-01 1.489842497585E-01 3.642700642212E-01 -6.656856473120E-01 -3.542917202185E+00 -1.219912783191E+00 1.797255391073E+00 1.542212919391E+00 1.138918026823E+00 -4.879163077341E-01 -5.698299888936E+00 -1.599416368940E+00 -1.027649633866E+00 1.029988258890E+00 1.864349024823E-01 -1.019449657302E+00 -1.785886272382E+00 1.988248443697E+00 -2.325011878776E+00 -4.910622002843E+00 1.509814809069E+00 7.140395141586E-01 -8.248735857190E-01 1.677106103201E+00 -4.159306997342E-02 2.640805499281E+01
 2.837172933285E+00 -8.130334047230E-01 1.045649113852E+00 -1.115547430342E+00 -1.267930032490E+00 1.850722690848E+00 8.111293384289E-01 -4.362600301487E-01 2.203654488558E+00 -1.060547235330E+01 -2.044739156682E-01 -1.056386341658E+01 -2.262225853084E+00 -2.111635384513E+00 5.360855261151E+00 3.195175556930E-03 -5.545590924852E-01 1.313802861356E+00 3.633117552208E-01 -1.547208271873E+00 1.704086217616E-01 -1.703766127432E+00 5.538937932924E-01 -1.955488510300E+00 -5.453153901660E-01 -5.763399964237E-01 -4.345544253462E-01 -7.734577812230E-01 1.672150696651E+00 -1.734366264648E+00 4.198788878378E-01 -5.030628548223E-02 -3.628207987688E-01 1.722217950300E+00 7.346503558381E-01 -1.453915058469E+00 5.063810346762E-01 6.584316944598E-01 -1.138882559060E+00 9.865506814784E-01 8.833613833742E-01 -6.409753899564E-01 2.788862266723E-01 -1.470853550903E+00 -5.358579725949E-01 -2.387939242509E+00 -1.901252039659E+00 -2.137014694269E-01 1.328276799950E+01
 -4.670465196756E+00 2.464283250069E+00 -1.701706567522E+00 2.274482868132E+00 1.577094596566E+00 -1.610528801038E+00 -1.165137104126E+00 2.938488815506E+00 -2.038765460930E+00 2.481079979176E+00 -4.023295899089E+00 -2.488189475684E+00 -3.908200033442E+00 -6.381612925622E+00 9.627110345141E+00 1.507057928754E+00 -3.054810695119E-01 -1.444740271142E+00 3.179029891799E-01 -2.384996293062E+00 -3.100483826298E-01 6.439566730855E-01 -1.565450863451E+00 8.440940203830E-03 -2.419925364276E-01 9.581198941303E-01 1.313149678610E-01 -4.670379609346E-01 7.668238215724E-01 7.548670361826E-01 1.827389610270E-01 1.697396631553E+00 -2.281524824626E+00 -3.502784257807E-01 -4.208220811012E-01 9.983699925915E-01 4.383736549179E-01 2.198587611050E+00 2.235981340929E+00 1.756358227656E-01 -1.813324607706E+00 2.102833517751E+00 6.754079193331E-01 -8.085608917424E-01 1.203821711986E+00 -1.796930967867E+00 -1.415318462780E+00 9.593078176739E-01 6.066269850140E+00 9.836892809428E+00
 2.480240998788E+00 3.344694403619E+00 3.787576307295E+00 -5.776813119261E+00 -2.290378355216E+00 4.875195584267E+00 -5.518221226609E-01 -3.252663411360E+00 3.891729901057E+00 -9.604819933042E+00 -1.496581290513E+00 -8.075897590848E+00 5.221769111881E+00 7.020919963328E+00 -9.802401923604E+00 9.363970725764E-01 -4.465237932173E+00 5.681888339559E+00 1.275071467999E+00 -2.182715073134E+00 8.458843846835E-01 -1.228033093997E+00 9.162676228090E-01 -4.494789537362E+00 1.513294126462E+00 -1.294126901188E+00 2.122235281415E+00 -1.224316402648E+00 8.799533038801E-01 -4.666357906520E+00 -4.027824664458E-01 1.251430859385E+00 -6.041472736692E-01 -4.736982595022E-01 3.937648334159E+00 -2.589437136808E+00 1.430832891394E+00 -9.911654588134E-01 -5.863995050718E+00 1.051572617729E+00 -2.107177310280E+00 -1.339118192417E+00 2.443616956923E+00 -2.561890000476E-02 -5.088766748123E+00 -1.324349008664E+00 2.719858960509E+00 -3.214933648782E-01 5.578825307035E+00 -5.790743170908E+00 2.243807853210E+01
 1.862632013194E+00 -1.042767854378E+00 1.095319187683E+00 4.435173674226E-02 3.156013218080E-01 1.344872835888E+00 3.988355560979E-01 -1.123713448267E-02 1.342230371559E+00 -3.074177276199E+00 3.078822773943E-01 1.480388080035E+00 -7.101844505313E+00 -1.396537977868E-01 -9.960887574382E+00 -1.406472369237E+00 3.821928851962E+00 5.312079217843E+00 2.895171061874E-01 -5.806304899578E-01 9.722972715767E-01 -9.438776638545E-01 -3.455458284877E-01 6.895346746215E-01 -1.584024959420E+00 -4.248686939972E-01 -3.821454546093E-01 -2.906723212220E-01 1.231328355661E+00 1.864084640215E+00 1.263825390511E+00 -4.721747711792E-01 -9.212301866974E-01 8.505992930145E-01 7.005499076093E-01 1.391209709064E-01 2.507620419497E-01 7.187676638100E-01 -1.139497656444E+00 1.021023500575E+00 1.152025192318E+00 -2.040165566175E+00 2.058084796307E-02 -3.494831555400E-01 -6.620920645361E-01 -6.046358259344E-01 -1.831329417979E+00 -3.117104281019E+00 -1.538643968065E+00 -2.262055304855E+00 -8.643421856161E-01 1.066115946174E+01
 4.449207394081E+00 -1.808797262682E+00 9.415856351797E-01 -2.617820007283E-01 -2.120022506191E+00 2.647163642393E+00 1.757026155993E+00 2.185611331582E-01 2.682543769199E+00 -5.275158026709E+00 1.641442011950E-01 2.164479971559E+00 1.231050426932E+00 4.102783079976E+00 8.870576869599E-01 1.004743814915E+00 -5.420961781434E+00 -8.915518271014E+00 1.196466744896E+00 1.156713810381E+00 3.504350193293E-02 -4.057189606499E-01 1.285147585482E+00 -9.419502592353E-01 -2.208836898726E-01 -1.975897522321E+00 -1.767948299507E+00 -1.177421684599E+00 4.811430305136E-01 1.132147931329E+00 4.205737992734E-01 -1.731229162185E+00 -2.815315642211E+00 1.499629720803E+00 5.962509465362E-01 -1.102698206117E+00 -2.956024913559E-03 -5.092713887088E+00 -7.553855955751E-01 -7.240512124882E-01 1.070699891902E+00 -9.519330388704E-01 -7.920074729543E-01 3.998877085986E-01 1.062075740545E-01 -1.144732037768E+00 8.603671762019E-01 -3.520881978139E+00 -1.287733401319E-01 -2.645787511963E+00 2.150279884263E+00 -1.180118246572E+00 9.952956266144E+00
 1.245196677870E+00 -2.053495686598E+00 4.254095506829E+00 5.014000231561E-01 1.662859725539E+00 4.406959678151E+00 3.171900919358E+00 3.567518658281E+00 3.647346741762E+00 -4.903041283506E+00 -3.204970001763E+00 4.432337743149E+00 -6.838553366105E+00 -1.821212073491E-01 -7.552746028206E+00 -9.087346573794E-02 -8.684684642563E+00 -7.860938374168E+00 -6.005643598713E-01 -5.232355395194E-01 -2.427222348719E+00 -3.878792383326E-01 6.529586104466E-02 1.299380736844E+00 9.906100645023E-02 -8.724666508027E-01 -4.248887391941E+00 6.542157035825E-02 1.888808656820E+00 2.189867928297E+00 8.289957348172E-01 -1.742917293727E+00 -3.804247981319E+00 -7.413370149658E-01 -6.896490115276E-01 -5.819274110192E-01 -4.303594790526E-01 -1.313802766868E+00 -1.473780536350E+00 1.523355408540E+00 4.969144733722E-01 -5.331663098115E+00 1.258750555486E+00 1.021423472689E+00 -5.054093491793E-01 -5.723260900274E-01 1.800269642399E+00 -6.305521814879E+00 1.467941068859E+00 -3.811409412833E-01 -7.840883414922E-01 4.817570070395E+00 8.001647254660E+00 2.058024527606E+01