 Job started on host DESKTOP-5CQNRD0
 at Wed Oct  2 13:43:33 2019

 +-------------------------------------------------+
 |                                                 |
 |      CCC   AA    SSS  TTTTT  EEEEE  PPPP        |
 |     C     A  A  S       T    E      P   P       |
 |     C     AAAA   SS     T    EEE    PPPP        |
 |     C     A  A     S    T    E      P           |
 |      CCC  A  A  SSS     T    EEEEE  P           |
 |                                                 |
 +-------------------------------------------------+
 |                                                 |
 | Materials Studio CASTEP version 2017            |
 | Ab Initio Total Energy Program                  |
 |                                                 |
 | Authors:                                        |
 | M. Segall, M. Probert, C. Pickard, P. Hasnip,   |
 | S. Clark, K. Refson, J. R. Yates, M. Payne      |
 |                                                 |
 | Contributors:                                   |
 | P. Lindan, P. Haynes, J. White, V. Milman,      |
 | N. Govind, M. Gibson, P. Tulip, V. Cocula,      |
 | B. Montanari, D. Quigley, M. Glover,            |
 | L. Bernasconi, A. Perlov, M. Plummer,           |
 | E. McNellis, J. Meyer, J. Gale, D. Jochym       |
 | J. Aarons, B. Walker, R. Gillen, D. Jones       |
 | T. Green, I. J. Bush, C. J. Armstrong,          |
 | E. J. Higgins, E. L. Brown, M. S. McFly         |
 |                                                 |
 | Copyright (c) 2000 - 2016                       |
 |                                                 |
 | Please cite                                     |
 |                                                 |
 |     "First principles methods using CASTEP"     |
 |                                                 |
 |         Zeitschrift fuer Kristallographie       |
 |           220(5-6) pp. 567-570 (2005)           |
 |                                                 |
 | S. J. Clark, M. D. Segall, C. J. Pickard,       |
 | P. J. Hasnip, M. J. Probert, K. Refson,         |
 | M. C. Payne                                     |
 |                                                 |
 |       in all publications arising from          |
 |              your use of CASTEP                 |
 |                                                 |
 +-------------------------------------------------+
 
 
 This version was compiled for x86_64-windows-msvc2008 on May 05 2016
 Intel(R) Math Kernel Library Version 11.1.2 
 Fundamental constants values: CODATA 2010
 
License checkout of MS_castep successful
 
 
 Atomic calculation performed for W:
 1s2 2s2 2p6 3s2 3p6 3d10 4s2 4p6 4d10 4f14 5s2 5p6 5d4 6s2
 
 Converged in 103 iterations to an ae energy of -439258.661 eV
 
 Identity difference: 2.17E-03
 
   ============================================================                
   | Pseudopotential Report - Date of generation  2-10-2019   |                
   ------------------------------------------------------------                
   | Element: W Ionic charge: 28.00 Level of theory: PBE      |                
   | Atomic Solver: Koelling-Harmon                           |                
   |                                                          |                
   |               Reference Electronic Structure             |                
   |         Orbital         Occupation         Energy        |                
   |            5s              2.000           -2.906        |                
   |            5p              6.000           -1.588        |                
   |            4f             14.000           -1.220        |                
   |            6s              2.000           -0.210        |                
   |            5d              4.000           -0.165        |                
   |                                                          |                
   |                 Pseudopotential Definition               |                
   |        Beta     l      e      Rc     scheme   norm       |                
   |          1      0   -2.906   2.409     qc      0         |                
   |          2      0   -0.210   2.409     qc      0         |                
   |          3      0    0.250   2.409     qc      0         |                
   |          4      1   -1.588   2.409     qc      0         |                
   |          5      1    0.250   2.409     qc      0         |                
   |          6      2   -0.165   2.409     qc      0         |                
   |          7      2    0.250   2.409     qc      0         |                
   |          8      3   -1.220   2.409     qc      0         |                
   |          9      3    0.250   2.409     qc      0         |                
   |         loc     3    0.000   2.409     pn      0         |                
   |                                                          |                
   | Augmentation charge Rinner = 1.684                       |                
   | Partial core correction Rc = 1.684                       |                
   ------------------------------------------------------------                
   | "3|2.4|9.5|11|13|50U:60UU:51UU:52UU:43UU(qc=6)[]"        |                
   ------------------------------------------------------------                
   |      Author: Chris J. Pickard, Cambridge University      |                
   ============================================================                
 
 Doing a self consistent calculation for the test configuration
 
 Atomic calculation performed for W:
 1s2 2s2 2p6 3s2 3p6 3d10 4s2 4p6 4d10 4f14 5s2 5p6 5d4 6s2
 
 Converged in 103 iterations to an ae energy of -439258.661 eV
 
 ---------------------------------------
 AE eigenvalue nl 10 =    -2553.99403213
 AE eigenvalue nl 20 =     -440.80932495
 AE eigenvalue nl 21 =     -385.46881878
 AE eigenvalue nl 30 =     -101.52152199
 AE eigenvalue nl 31 =      -85.13579571
 AE eigenvalue nl 32 =      -66.30239752
 AE eigenvalue nl 40 =      -20.94386674
 AE eigenvalue nl 41 =      -15.57011265
 AE eigenvalue nl 42 =       -8.76215266
 AE eigenvalue nl 43 =       -1.22033221
 AE eigenvalue nl 50 =       -2.90586211
 AE eigenvalue nl 51 =       -1.58765247
 AE eigenvalue nl 52 =       -0.16465101
 AE eigenvalue nl 60 =       -0.20994863
 ---------------------------------------
 PS eigenvalue nl 43 =       -1.21932584
 PS eigenvalue nl 50 =       -2.90531568
 PS eigenvalue nl 51 =       -1.58739756
 PS eigenvalue nl 52 =       -0.16465483
 PS eigenvalue nl 60 =       -0.20992197
 ---------------------------------------
 Maximum eigenvalue error:   1.01E-03
 
 Derived cutoff energies: C=   8 M=  10 F=  12 E=  14
 
 
 ***************************************
 
 Pseudo atomic calculation performed for W 4f14 5s2 5p6 5d4 6s2
 
 Converged in 29 iterations to a total energy of -9238.7720 eV
 
 Calculation not parallelised.

 ************************************ Title ************************************
 CASTEP calculation from Materials Studio

 ***************************** General Parameters ******************************
  
 output verbosity                               : normal  (1)
 write checkpoint data to                       : W__0_0_1___2_.check
 type of calculation                            : single point energy
 stress calculation                             : off
 density difference calculation                 : off
 electron localisation func (ELF) calculation   : off
 Hirshfeld analysis                             : off
 unlimited duration calculation
 timing information                             : on
 memory usage estimate                          : on
 write final potential to formatted file        : off
 write final density to formatted file          : off
 write BibTeX reference list                    : on
 write OTFG pseudopotential files               : on
 checkpoint writing                             : both castep_bin and check files
  
 output         length unit                     : A
 output           mass unit                     : amu
 output           time unit                     : ps
 output         charge unit                     : e
 output           spin unit                     : hbar/2
 output         energy unit                     : eV
 output          force unit                     : eV/A
 output       velocity unit                     : A/ps
 output       pressure unit                     : GPa
 output     inv_length unit                     : 1/A
 output      frequency unit                     : cm-1
 output force constant unit                     : eV/A**2
 output         volume unit                     : A**3
 output   IR intensity unit                     : (D/A)**2/amu
 output         dipole unit                     : D
 output         efield unit                     : eV/A/e
 output        entropy unit                     : J/mol/K
  
 wavefunctions paging                           : none
 random number generator seed                   : randomised (134344963)
 data distribution                              : optimal for this architecture
 optimization strategy                          : balance speed and memory

 *********************** Exchange-Correlation Parameters ***********************
  
 using functional                               : Perdew Burke Ernzerhof
 relativistic treatment                         : Koelling-Harmon
 DFT+D: Semi-empirical dispersion correction    : off

 ************************* Pseudopotential Parameters **************************
  
 pseudopotential representation                 : reciprocal space
 <beta|phi> representation                      : reciprocal space
 spin-orbit coupling                            : off

 **************************** Basis Set Parameters *****************************
  
 plane wave basis set cut-off                   :   353.7000   eV
 size of standard grid                          :     1.5000
 size of   fine   gmax                          :    14.4526   1/A
 largest prime factor in FFT                    :          5
 finite basis set correction                    : none

 **************************** Electronic Parameters ****************************
  
 number of  electrons                           :  168.0    
 net charge of system                           :  0.000    
 treating system as non-spin-polarized
 number of bands                                :        101

 ********************* Electronic Minimization Parameters **********************
  
 Method: Treating system as metallic with density mixing treatment of electrons,
         and number of  SD  steps               :          1
         and number of  CG  steps               :          4
  
 total energy / atom convergence tol.           : 0.1667E-04   eV
 eigen-energy convergence tolerance             : 0.9901E-06   eV
 max force / atom convergence tol.              : ignored
 convergence tolerance window                   :          2   cycles
 max. number of SCF cycles                      :        100
 number of fixed-spin iterations                :         10
 smearing scheme                                : Gaussian
 smearing width                                 : 0.1000       eV
 Fermi energy convergence tolerance             : 0.2721E-13   eV
 periodic dipole correction                     : NONE

 ************************** Density Mixing Parameters **************************
  
 density-mixing scheme                          : Pulay
 max. length of mixing history                  :         20
 charge density mixing amplitude                : 0.5000    
 cut-off energy for mixing                      :  353.7       eV
 charge density mixing g-vector                 :  1.500       1/A

 *******************************************************************************
  
 
                           -------------------------------
                                      Unit Cell
                           -------------------------------
        Real Lattice(A)                      Reciprocal Lattice(1/A)
   3.1650000   0.0000000   0.0000000        1.9852086   0.0000000   0.0000000
   0.0000000   3.1650000   0.0000000        0.0000000   1.9852086   0.0000000
   0.0000000   0.0000000  18.9125000        0.0000000   0.0000000   0.3322239
 
                       Lattice parameters(A)       Cell Angles
                    a =    3.165000          alpha =   90.000000
                    b =    3.165000          beta  =   90.000000
                    c =   18.912500          gamma =   90.000000
 
                       Current cell volume =  189.450768       A**3
 
                           -------------------------------
                                     Cell Contents
                           -------------------------------
                         Total number of ions in cell =    6
                      Total number of species in cell =    1
                        Max number of any one species =    6
 
            xxxxxxxxxxxxxxxxxxxxxxxxxxxxxxxxxxxxxxxxxxxxxxxxxxxxxxxxxxxx
            x  Element    Atom        Fractional coordinates of atoms  x
            x            Number           u          v          w      x
            x----------------------------------------------------------x
            x  W            1         0.500000   0.000000  -0.125512   x 
            x  W            2         0.500000   0.000000   0.041837   x 
            x  W            3         0.500000   0.000000   0.209187   x 
            x  W            4         0.000000   0.500000   0.125512   x 
            x  W            5         0.000000   0.500000  -0.041837   x 
            x  W            6         0.000000   0.500000  -0.209187   x 
            xxxxxxxxxxxxxxxxxxxxxxxxxxxxxxxxxxxxxxxxxxxxxxxxxxxxxxxxxxxx
 
 
                         No user defined ionic velocities
 
                           -------------------------------
                                   Details of Species
                           -------------------------------
 
                               Mass of species in AMU
                                    W  183.8500061
 
                          Electric Quadrupole Moment (Barn)
                                    W    1.0000000 No Isotope Defined
 
                          Files used for pseudopotentials:
                                    W 3|2.4|9.5|11|13|50U:60UU:51UU:52UU:43UU(qc=6)[]
 
                           -------------------------------
                              k-Points For BZ Sampling
                           -------------------------------
                       MP grid size for SCF calculation is  5  5  1
                            with an offset of   0.000  0.000  0.000
                       Number of kpoints used =             6
 
                           -------------------------------
                               Symmetry and Constraints
                           -------------------------------
 
                      Maximum deviation from symmetry = 0.157478E-14     ANG
 
                      Number of symmetry operations   =          16
         There are no ionic constraints specified or generated for this cell
                      Point group of crystal =    15: D4h, 4/mmm, 4/m 2/m 2/m
                      Space group of crystal =   129: P4/nmm, P 4ab 2ab -1ab
 
             Set iprint > 1 for details on symmetry rotations/translations
 
                         Centre of mass is NOT constrained
 
                         Number of cell constraints= 4
                         Cell constraints are:  1 1 3 0 0 0
 
                         External pressure/stress (GPa)
                          0.00000   0.00000   0.00000
                                    0.00000   0.00000
                                              0.00000
  
+---------------- MEMORY AND SCRATCH DISK ESTIMATES PER PROCESS --------------+
|                                                     Memory          Disk    |
| Baseline code, static data and system overhead        0.0 MB         0.0 MB |
| BLAS internal memory storage                          0.0 MB         0.0 MB |
| Model and support data                              130.0 MB        87.7 MB |
| Electronic energy minimisation requirements          66.7 MB         0.0 MB |
| Force calculation requirements                        2.6 MB         0.0 MB |
|                                               ----------------------------- |
| Approx. total storage required per process          196.8 MB        87.7 MB |
|                                                                             |
| Requirements will fluctuate during execution and may exceed these estimates |
+-----------------------------------------------------------------------------+
------------------------------------------------------------------------ <-- SCF
SCF loop      Energy           Fermi           Energy gain       Timer   <-- SCF
                               energy          per atom          (sec)   <-- SCF
------------------------------------------------------------------------ <-- SCF
Initial  -5.21708493E+004  0.00000000E+000                        23.20  <-- SCF
      1  -5.49895648E+004  2.83180363E+000   4.69785910E+002      34.62  <-- SCF
      2  -5.54968967E+004  1.35624160E+000   8.45553245E+001      42.67  <-- SCF
      3  -5.55134288E+004  1.58859800E+000   2.75534117E+000      51.83  <-- SCF
      4  -5.55137430E+004  1.58729160E+000   5.23714741E-002      60.27  <-- SCF
      5  -5.55119070E+004  1.21646125E+000  -3.05996142E-001      68.97  <-- SCF
      6  -5.55103113E+004  1.70996410E+000  -2.65955617E-001      77.30  <-- SCF
      7  -5.55098114E+004  1.80165303E+000  -8.33243425E-002      85.44  <-- SCF
      8  -5.55097749E+004  1.84561155E+000  -6.07974077E-003      93.59  <-- SCF
      9  -5.55097418E+004  1.91857665E+000  -5.51709514E-003     101.73  <-- SCF
     10  -5.55097146E+004  2.00569871E+000  -4.52309002E-003     108.14  <-- SCF
     11  -5.55096697E+004  2.21686009E+000  -7.48287896E-003     115.08  <-- SCF
     12  -5.55096510E+004  2.36486491E+000  -3.11690804E-003     121.64  <-- SCF
     13  -5.55096413E+004  2.48586385E+000  -1.62180976E-003     127.52  <-- SCF
     14  -5.55096489E+004  2.58762460E+000   1.26487028E-003     132.98  <-- SCF
     15  -5.55096595E+004  2.58491194E+000   1.77264905E-003     138.64  <-- SCF
     16  -5.55096607E+004  2.58965893E+000   1.88444067E-004     144.39  <-- SCF
     17  -5.55096610E+004  2.58964367E+000   5.37297244E-005     149.86  <-- SCF
     18  -5.55096610E+004  2.58905352E+000   2.52176792E-006     155.09  <-- SCF
------------------------------------------------------------------------ <-- SCF
 
Final energy, E             =  -55509.63863723     eV
Final free energy (E-TS)    =  -55509.66099722     eV
(energies not corrected for finite basis set)
 
NB est. 0K energy (E-0.5TS)      =  -55509.64981722     eV
 

Writing analysis data to W__0_0_1___2_.castep_bin

Writing model to W__0_0_1___2_.check
 
 ***************** Symmetrised Forces *****************
 *                                                    *
 *            Cartesian components (eV/A)             *
 * -------------------------------------------------- *
 *                   x            y            z      *
 *                                                    *
 * W         1      0.00000      0.00000     -1.60921 *
 * W         2      0.00000      0.00000     -0.03074 *
 * W         3      0.00000      0.00000     -1.25786 *
 * W         4      0.00000      0.00000      1.60921 *
 * W         5      0.00000      0.00000      0.03074 *
 * W         6      0.00000      0.00000      1.25786 *
 *                                                    *
 ******************************************************

Writing analysis data to W__0_0_1___2_.castep_bin

Writing model to W__0_0_1___2_.check
 
 A BibTeX formatted list of references used in this run has been written to 
 W__0_0_1___2_.bib
 
Initialisation time =     18.80 s
Calculation time    =    139.33 s
Finalisation time   =      0.16 s
Total time          =    158.28 s
