#BIOSYM hessian 1
@Type: Hessian Update
@Units
 distance: 	A
 energy: 	Kcal/Mol
#header
@natom 4

#label
L1      L2      L3      L4

#element
Li Li Li Li

#matrix
12
 1.732038251397E+01
 -2.487019979340E+00 3.305320226337E+01
 3.828696071227E+00 -6.763195564343E-01 5.088222286744E+00
 -3.735492622681E+00 -1.245650576919E+01 1.792935987743E+00 2.323943393297E+01
 -9.843122555880E+00 -1.137897436984E+01 -1.383131862965E-01 7.504615165752E+00 1.223074169583E+01
 -6.766152743492E-01 4.634621328885E+00 -1.997027809496E+00 -6.006408133144E+00 -9.272906549477E-02 8.097495123959E+00
 -4.005327154934E+00 1.478099800418E+00 -8.542473218471E-01 -5.499920957790E+00 3.753186973391E+00 5.967016602273E+00 1.086388445757E+01
 -2.307712499088E+00 -1.014847754665E+01 -4.850969518238E+00 2.593831575991E+00 2.598006427274E+00 -1.801822879272E+00 6.761682503836E-01 1.030350943538E+01
 -2.979292969240E+00 -1.205794535536E+01 -7.137321508099E-01 7.506172283152E+00 4.163473110061E+00 -8.823375010978E+00 1.455992530365E+00 1.090615297075E+01 2.469801864885E+01
 -9.579562736358E+00 1.346542594811E+01 -4.767384737122E+00 -1.400402035250E+01 -1.414679583262E+00 7.160068052206E-01 -1.358636344845E+00 -9.622873272869E-01 -5.982871844277E+00 2.494221943371E+01
 1.463785503431E+01 -1.152575034688E+01 5.665602260969E+00 2.358059027446E+00 -3.449773753268E+00 -2.740069384118E+00 -5.907455024192E+00 -2.753038316006E+00 -3.011680725449E+00 -1.108845903756E+01 1.772856241615E+01
 -1.727878276375E-01 8.099643582913E+00 -2.377462326438E+00 -3.292700137751E+00 -3.932430858270E+00 2.722907696514E+00 -6.568761810791E+00 -4.253360573242E+00 -1.516091148707E+01 1.003424977618E+01 8.614784859856E-02 1.481546611699E+01

