#BIOSYM hessian 1
@Type: Hessian Update
@Units
 distance: 	A
 energy: 	Kcal/Mol
#header
@natom 19

#label
L1      L2      L3      L4      L5      L6      L7      L8      L9      L10     L11     L12     L13     L14     L15     L16     L17     L18     L19

#element
Li Li Li Li Li Li Li Li Li Li Li Li Li Li Li Li Li Li Li

#matrix
57
 3.524176087646E+01
 -1.180357447132E-01 4.024855600908E+01
 -1.268467928456E+00 3.596221521109E+00 3.973292566702E+01
 8.354473566336E+00 -2.215678995024E+00 -2.401499481791E+01 3.742886054360E+01
 -3.904160402851E-01 1.637431675502E+00 4.552027439315E+00 -1.539305280592E+00 4.184649511726E+01
 1.434983843525E+00 1.813901154173E+00 -2.560499715045E+00 5.900624177608E+00 4.212635091647E+00 2.911182042654E+01
 -1.845704677568E+00 1.214186237147E+01 1.970253181069E+01 -1.391040161662E+01 3.321534975233E-01 -3.848008308906E+00 3.772708984958E+01
 6.623851158117E-01 -8.268613599088E+00 -3.006340626555E+00 1.956644193071E+00 -1.118827966162E+01 8.293608110558E-01 -3.130469552468E+00 4.177648244670E+01
 2.262899302121E-01 2.408392914113E+00 -3.296517550048E+00 4.585384373608E+00 7.554290541133E+00 2.637012525300E+00 6.324161079304E-01 -2.901947421922E+00 2.992109946712E+01
 -9.645229511707E+00 -7.038356894015E+00 5.621477357518E+00 -1.204326232065E+01 -9.471809843014E-01 9.317493779459E-01 -8.695450000262E+00 1.916553364460E+00 1.369315837429E+00 7.678614421743E+01
 -3.215469334344E+00 -1.537403077332E+00 -6.029946166710E+00 -5.597770834537E-01 -1.204594646982E+01 -3.175632794935E+00 4.285269872919E-01 3.263031167766E+00 -5.867311233251E+00 -7.046433841472E+00 1.027031070748E+02
 3.015383607469E-01 -1.176473142882E+01 -3.494090270805E+00 -8.091813494528E-01 -1.023595745382E+01 -8.055653131062E+00 3.460715636638E+00 6.170412755627E+00 -1.110650799240E+01 -1.377661714469E+01 2.447939802333E+00 1.128476284188E+02
 -1.122568684654E+01 -5.895368735395E+00 5.473107936129E+00 -1.260229115617E+01 -3.672572434350E+00 1.076274367628E+00 -8.268584705604E+00 1.829575473310E+00 -1.847336841239E+00 3.603485317043E+01 2.267663820966E+01 3.732675688353E+01 1.307798782084E+02
 1.095387940264E+00 -1.340393322474E+01 -1.710246491579E+00 3.134582510933E-01 -1.885918168721E+01 -1.563249738236E+00 -2.863033202281E+00 1.134147082154E+01 -4.822293644446E+00 1.050851255035E+01 -4.869683430092E+01 9.724916956570E+00 -2.143357799258E+01 8.383745354957E+01
 -1.296468928517E-01 -4.440476101919E+00 -8.780438333913E+00 -6.401082779798E-01 -1.561795333187E+00 -1.002748742500E+01 3.060000050388E-01 -3.948011533191E+00 -8.478191017038E+00 -1.149621150098E+01 3.147317221993E+01 5.954510199988E+00 -2.376775771247E+01 -1.996191094425E+01 1.012671980839E+02
 -8.959828988859E+00 -2.605885241183E+00 -7.016433839018E+00 4.761454038236E+00 2.937645169853E-01 4.659348491360E+00 -7.094191358525E+00 2.598243178708E+00 5.126384831416E-01 -1.044442221635E+01 1.394333411988E+00 3.811437154412E+00 -1.303212597074E+01 8.916301657792E-01 1.845198999454E+00 3.949841631307E+01
 8.062745024029E+00 7.703130930978E+00 2.530819393851E+00 -2.051993240863E+00 5.396241986206E+00 3.234617221379E+00 5.614871597238E+00 -7.943285097276E+00 3.553561002301E+00 -5.628808444549E+00 -3.870480159259E+00 -8.883270320557E+00 -2.743978518889E+00 -1.268115697392E+01 -4.785443446007E+00 -6.137964536467E+00 3.561472871264E+01
 4.505476671066E-01 -4.064764215743E-01 8.831774710713E+00 -3.731584729884E+00 -3.619749544829E+00 -4.360041488638E+00 5.580799314187E+00 4.752398122114E+00 -2.380334265592E+00 3.383402742653E+00 -4.383158616921E-01 -1.610267508400E+00 4.563290965061E+00 7.097731096825E+00 -1.200195134765E+01 -7.060643495593E+00 -3.246688900035E+00 2.690265508401E+01
 1.313480007357E+00 -1.584518945635E+01 -1.199692820444E+01 7.924902641492E+00 5.519563072324E+00 -1.642550947803E+00 -1.077821353248E+01 3.427865428873E+00 2.183755426440E+00 -6.092293891886E+00 -5.685276419064E+00 5.759803365618E+00 -5.751502653942E+00 5.453407120708E+00 4.745905544159E-01 1.592682446107E+00 -3.106039258122E+00 -4.294332749914E+00 4.060170611986E+01
 -3.082635002727E-01 -8.608236116449E+00 2.234541555489E+00 1.684513544752E+00 2.451701250350E+00 5.990264589052E+00 -2.510253266549E+00 -1.830943697437E+00 1.947971733012E+00 -5.800615725816E+00 -4.468342038745E+00 -4.635471586038E+00 -3.417792902551E+00 -4.357763531633E+00 -4.054780450335E+00 6.743805222237E+00 -2.235606509537E+00 -1.671450378093E+00 5.036470511792E+00 3.709438735127E+01
 2.378555385209E+00 -1.518791170748E+00 -1.381294440332E+01 1.062802958752E+01 -5.586111557544E+00 -1.125322456322E+00 -9.423308777372E+00 8.824804425675E+00 2.497110489693E-01 5.116169955074E+00 4.045693396130E+00 -1.688910373278E+00 2.402273077466E+00 1.306117171181E+01 -8.398243595962E+00 3.031719334768E+00 -5.686510096316E+00 -4.632903425587E-01 2.009706423254E+00 -4.740188096733E+00 4.219911582230E+01
 -1.144805372152E+01 -4.722979077155E+00 2.468750761917E+00 -1.193552337280E+01 -3.466618815617E+00 3.132041751343E-02 -9.959955632710E+00 1.944755586660E+00 2.830969729800E+00 5.010257860828E+01 1.210117216455E+00 -6.159561088179E+01 -7.678233518613E-01 9.975250407476E+00 1.761310928803E+01 -8.584889194576E+00 -5.212205245241E+00 1.524291201444E+00 -8.233407105705E+00 -3.100408307197E+00 2.658999263626E+00 1.195365710138E+02
 -2.203630268548E+00 -2.842410072979E+00 -7.092968008562E+00 -2.038841847053E+00 4.200944222056E+00 -5.391980630113E+00 -5.675292871020E+00 -8.807496117290E+00 1.403482108044E+00 2.242698542154E+01 9.101551522642E-02 2.205038714825E+01 2.170594512363E+01 -8.058868875983E+00 3.214153624845E+01 -5.552560741341E+00 -3.102299012007E+00 -8.902531365422E+00 -5.408784627671E-02 -8.258089015875E+00 -9.249634119350E-01 7.906939313453E+00 7.276283604212E+01
 9.915437656352E-01 -9.329025368593E+00 -6.659112164527E+00 8.916588114588E-01 -1.048737336501E+01 -6.918876349978E+00 1.053570645913E+00 4.589449898324E+00 -9.088425260252E+00 -1.219957430213E+01 1.904201009311E+01 -1.425563087282E+00 -3.982001016676E+01 2.365823357428E+00 5.255934666825E+01 2.885831264504E+00 -7.549129642375E+00 -4.047966797890E+00 3.992736551770E+00 -1.857251148604E+00 -8.408863580805E+00 1.534980149628E+01 1.295241309455E+01 7.001138121110E+01
 1.615808047568E+00 7.572521739305E+00 -2.488876473698E+00 4.314774563030E+00 -9.580427897346E-01 -2.359570737313E+00 2.627025102229E+00 -3.830183266686E+00 -1.270255013865E+00 -1.152902908243E+01 3.240750905422E-01 1.402575158615E+00 -1.103842825793E+01 -1.973496942145E+00 1.845511745898E+00 -2.154791917439E+00 5.577029675989E-01 -2.379011260097E+00 -2.987608837346E+00 -2.006374710099E+00 1.492544829634E+00 -1.064939433909E+01 -2.381402667806E+00 9.042802692224E-01 4.146038574578E+01
 -9.710277471477E-01 -4.643741449107E+00 4.595603703962E-01 -2.439997912016E-01 5.628828030719E+00 -3.634894000278E+00 -8.007283634839E-01 -2.299327787878E+00 2.024230535767E+00 1.836217114931E+00 -9.020368455060E+00 -1.999857368113E+00 -3.559983653139E+00 1.806139388411E+00 -3.075329710039E+00 -2.395986252452E+00 -2.040521136916E+00 -2.213224023583E+00 7.854816921937E+00 -6.228803617788E+00 -5.644927964357E+00 1.520556805838E+00 1.791814313810E+00 -1.471568213184E+00 -5.929916984437E+00 4.456706749218E+01
 3.519120861759E+00 1.985565005866E+00 -2.547913600553E+00 3.363991455723E+00 3.442746939006E+00 -9.931481469966E+00 -5.954371949389E+00 -5.199831917557E+00 -8.784796994710E+00 1.305083911297E+00 -9.355800689088E+00 -8.798850789288E+00 1.757829736627E+00 -3.483610557073E+00 -9.979269789904E+00 -9.252974055909E-01 1.567024443880E+00 -1.765439044363E+00 4.212184520488E+00 -1.149439420994E+00 -4.881373597204E-01 2.543413100127E-01 -4.418382406837E+00 -9.217818358512E+00 -2.387444605705E+00 1.710800301401E+00 4.875880445994E+01
 -6.571239419140E+00 1.128366209222E+00 3.030969499804E+01 -2.354657953134E+01 3.594760186045E+00 -5.635858259583E+00 1.906498651890E+01 -4.944627577246E+00 -3.537397674466E+00 -7.448592501125E+00 2.462631012626E-01 6.914871649445E+00 -1.246410793504E+01 3.512862508979E+00 1.470392496116E+00 -6.770238465567E+00 2.215003657953E-02 8.445366798849E+00 -8.132961214697E+00 3.052440236583E+00 -1.533948299068E+01 -9.352865792164E+00 -5.618106407574E+00 4.409052364731E+00 -5.085746688063E-01 1.876348045186E+00 -5.953346651753E+00 5.367975963916E+01
 -7.861593109548E-01 1.579205389142E+00 -4.451627893872E+00 1.787723445812E+00 -2.275590376300E+01 -3.662681611136E-01 -2.922842642852E+00 1.277825234728E+01 -8.816194749458E+00 8.412929293052E-02 3.249581412988E-01 5.456534486479E+00 3.510195478115E+00 2.011449739076E+01 -3.341302725137E+00 -2.597522522580E+00 -5.767604121084E+00 6.919463669083E+00 -3.783521381927E+00 -1.003239783614E+01 1.312784129576E+01 3.273625561743E+00 -1.011511497099E+01 1.015495646847E+01 1.442326943158E+00 -3.839832596957E+00 -4.397621089144E+00 -6.638234893811E+00 4.498143881004E+01
 -1.526195539502E+00 1.310596500319E+00 9.683286756072E+00 -6.127327556547E+00 -1.621161790858E+00 -1.025003519257E+00 6.263878553640E+00 1.292704962570E+00 -3.398511148177E+00 3.018578697717E+00 -7.264682066293E+00 -3.926582506372E+00 2.523805198355E+00 3.730736437256E+00 -8.595821848421E+00 -5.189357677009E+00 5.921346670319E-01 4.424312990399E+00 -3.831494465545E+00 3.689396963798E-01 -2.368345708247E+00 2.714089319163E+00 -6.274353285209E+00 -3.231907959063E+00 -9.105429324998E-01 -7.222488385058E-01 -1.135351359814E+00 2.687504797679E+00 6.234667607939E+00 2.484739147553E+01
 -3.232848265109E+00 -7.218467239370E+00 3.888037088988E+00 -4.288103181611E+00 2.396917555892E+00 -2.312558757362E+00 2.135821247902E+00 2.203091215742E+00 -1.847983156205E+00 -1.073354159174E+01 -4.023005972180E-01 3.587455525058E+00 -5.848145316055E+00 3.498850823480E+00 1.311375659892E+00 2.585472220711E-01 -4.397326170905E+00 5.366447830226E+00 5.032750878555E+00 7.532513598185E+00 -5.334121435652E+00 -6.342442977795E+00 -4.802999240484E+00 5.108475930830E+00 -1.254703707837E+00 2.346362883037E+00 -1.812541314619E+00 1.011786314788E+01 -4.033269396768E+00 -1.648835384780E-01 3.489647098747E+01
 5.521230964628E+00 1.367190703237E+01 6.000272529902E+00 1.255751766095E+00 -9.015351470944E+00 1.810427634521E+00 7.042871496393E+00 4.412193537048E-01 -1.854627749593E+00 2.013949717637E+00 -1.317866202852E+00 3.900278486756E-01 -1.386979281593E+00 1.402709372857E+00 -5.690355028370E+00 -7.746002735367E+00 6.413223968667E+00 5.567561699504E+00 -1.269411049130E+01 -1.052124682491E+01 2.985304158078E+00 -3.293872187837E+00 -7.007820566925E+00 -3.322643043773E+00 6.198779252367E+00 -5.764227157237E+00 -1.329458730183E+00 -7.017537673081E+00 1.191499343646E+01 1.954708836456E+00 -1.053864201655E+01 4.542869191882E+01
 -7.244679796663E+00 4.450801831405E+00 1.408293232641E+01 -1.678956138825E+01 -7.033953721614E+00 -1.673027301645E+00 1.233683081287E+01 6.405402792041E+00 -6.323779347139E+00 3.471857062484E+00 4.217240411989E+00 -1.666400307072E+00 5.093874375604E+00 9.225729105262E+00 -1.079377088537E+01 -3.746136106707E+00 6.990363615469E-01 4.872789095252E+00 -8.690502209710E+00 -6.578895995010E-01 -2.882818002406E+00 6.181784291520E+00 -1.212008125175E+01 -1.190504264694E+00 -1.234037164389E+00 -4.243419586687E+00 -5.855206546350E+00 1.493566850525E+01 9.652977488081E+00 2.081845474679E+00 6.583516385353E+00 1.182224606585E+00 3.816049400188E+01
 -9.854735515546E+00 6.946225546500E+00 -1.003099462323E+00 -4.222563990773E+00 -8.554109259507E-01 -7.488092591084E-01 2.206717948354E+00 -1.495323922219E+00 -3.840516489098E+00 -1.362255305349E+01 1.135892698880E+00 6.290800228782E-01 -7.978182642885E+00 -4.154644538155E+00 -4.023721426280E-01 -2.888369127093E+00 3.554548388303E+00 3.792580910595E+00 -4.282345454826E+00 -1.578435492737E+00 -4.808002728605E+00 -1.211893580326E+01 -6.793684802182E+00 1.649461045019E+00 -2.318817219249E+00 -2.940419340783E+00 -1.553370020506E+00 8.645497132869E+00 3.842261499557E+00 1.688344814203E+00 -7.913096937223E-01 1.566012306167E+00 6.895345912277E+00 3.734411136936E+01
 -2.398325534987E+00 1.027935467088E+01 -5.893446911919E-02 -6.982783596917E-01 -8.065501388433E+00 1.572423665319E+00 4.035024986782E+00 -1.132188734192E+00 -1.016848924969E+00 -4.196832542157E+00 7.408209729715E+00 -2.894428810753E+00 -1.149062450981E+00 -5.803072825848E-01 -3.987083221253E+00 -1.940215686135E+00 5.532308939862E-01 -2.089799555881E+00 -8.761234526752E+00 -4.109801010311E+00 1.935225976884E+00 -2.045872901537E+00 -6.845394041677E+00 -7.390358907827E-01 7.614333292728E-01 -6.215374157583E+00 -3.917343975477E+00 6.527392373429E-01 4.457818123490E+00 3.553631300252E+00 -8.387356063469E+00 5.470210279352E-01 3.567957264326E+00 1.192024322377E+01 3.755971305345E+01
 -1.032332289063E+01 4.010241884528E+00 8.802221973982E+00 -1.015927291687E+01 8.467543217201E+00 5.093609518774E-01 6.716354464417E+00 -6.521453095308E+00 -1.501281022776E-01 1.749837609603E+00 -5.904201876946E+00 -9.016619951587E+00 6.661894503570E-01 -6.413556913408E+00 -6.296276892199E+00 -3.019223440185E+00 2.237191153516E+00 -9.771783066886E-01 -6.419829225232E+00 3.722668311055E+00 -8.337242591550E+00 3.091625816737E+00 -3.596289189181E+00 -9.363140445048E+00 2.565134060028E+00 1.418809274623E+00 -2.407424266721E+00 1.242674127083E+01 -5.736243976737E+00 -1.626862275862E+00 2.968104644510E+00 -5.379778582416E-01 6.402513820508E+00 9.667276047378E+00 -3.195996266312E+00 3.557946460180E+01
 1.278883339713E+00 -2.801599256859E+01 -5.244243696830E+00 3.605167052073E+00 4.665602684894E+00 -7.698901825296E-01 -9.100471949831E+00 3.730170094834E+00 3.127487729731E-02 -7.061314375912E+00 -2.842195910041E+00 8.798109928366E+00 -8.652362835895E+00 7.698028229622E+00 1.893153629265E+00 1.017176779706E+01 -7.667131965191E+00 -2.602971550780E+00 1.402620631056E+01 1.017071567843E+01 7.679540057843E-01 -1.589429760818E+01 -1.700769755319E+00 3.293982884998E+00 -3.841982871488E+00 4.247441617472E+00 -1.012130036802E+00 2.190630699766E+00 -7.548595703215E+00 -3.329112560787E+00 9.344114752298E+00 -1.743132604841E+01 -1.152089255699E+00 -5.622259156725E+00 -1.046853440664E+01 -9.936003514098E-01 4.653119967705E+01
 4.219067437450E-01 6.126809865474E+00 2.076730008563E+00 -7.948359406243E-01 1.249709365608E+00 1.035392052034E+00 1.394615013746E+00 -1.469913488492E+00 1.355947067748E+00 -2.531644919461E+00 -3.073795993481E+00 -3.685960322626E+00 -2.300176814984E+00 -2.042517006446E+00 -3.414601008218E+00 9.793814877604E-01 -5.729267190598E+00 2.861294730077E+00 -4.894484779952E+00 -3.720441076636E+00 -1.515941701812E+00 -2.245037173647E+00 -4.715316378541E+00 -2.699920382865E+00 7.344687584261E-01 -6.292524449614E-01 1.716201389464E+00 4.166568569606E-01 3.821562417540E-01 1.097592580858E+00 3.559764175024E-01 -2.676988613402E-02 -1.658041422421E+00 2.616983184368E+00 2.558788783891E+00 8.568042926783E-01 -2.170469691785E+00 2.421141478488E+01
 9.142594767630E-01 -3.700901515604E+00 -2.390141265881E-01 -1.351854972636E+00 -1.942889438400E+01 9.012139492549E-01 3.513935229931E-01 1.294079111273E+01 -5.617816792644E+00 5.483685227536E+00 7.557729900816E+00 -2.308802464513E+00 5.225169633138E+00 2.243642619230E+01 -8.259674199035E+00 -3.677495462776E+00 -4.947057150966E+00 6.799878121768E+00 5.407469235882E-01 -5.584366210434E+00 9.375437322915E+00 8.926829711059E-01 -7.749196462211E+00 -4.534027318481E-02 -1.431976145103E+00 -2.809829378937E+00 -5.783377344788E+00 7.864419736931E-01 2.083291728484E+01 3.280787082430E+00 9.748657000193E-01 5.284534841823E+00 8.620005279103E+00 8.568105794168E-02 4.500718920903E+00 -5.868394319317E+00 4.651888025544E-01 3.593920519619E+00 4.124656464308E+01
 -2.031965870562E-02 -8.215193691440E+00 9.650281730757E+00 -5.369599940253E+00 1.805148082295E+00 -2.033291639054E+00 4.212744905282E+00 -2.242385798714E+00 -6.020708133164E+00 -6.223648109579E+00 -3.915028352730E+00 7.331185413994E+00 -1.136788060391E+01 1.997905799229E+00 7.905065762193E-01 8.132472997564E-01 6.682844137149E-01 -1.673612390935E+00 -2.580945086220E+00 6.865828550163E+00 -3.382915993676E+00 -1.068386837014E+01 1.670829534974E+00 6.044117152898E+00 -3.422697764228E+00 -1.997047972302E+00 -5.480692615187E-01 8.271363560473E+00 -2.378931021474E+00 7.953651874834E+00 -5.934824094980E+00 -1.979143535948E+00 4.395342265395E+00 -4.808271065869E-01 1.612033159903E+00 3.166027850766E+00 8.566523889184E+00 -4.130569306388E+00 -4.479233787826E+00 5.314102913621E+01
 -1.333441275221E+00 -4.456560197212E-01 -2.367668407594E+00 5.164070043274E-01 -6.016777253636E+00 -1.831777125402E+00 -3.008427814987E+00 -6.152146774943E+00 -4.839529467590E+00 -4.071130719915E+00 -7.552446844329E+00 7.300443566397E+00 2.548680346656E+00 1.082492511584E+01 -2.231866992909E+00 1.347914296272E-01 -3.048190953886E+00 3.264483830036E+00 3.680607560199E+00 -1.352237293305E+00 3.731212251158E+00 5.873067343309E+00 -1.216204225649E+01 1.317232473377E+00 -1.385213915417E+00 -6.502215461803E+00 5.439344999702E+00 2.034420629221E+00 6.455437208743E+00 -2.070601599234E+00 1.040189134173E+00 -2.268203209319E+00 3.274941129986E+00 3.324464688987E+00 -4.836680809267E+00 -2.568361998136E+00 -3.853416901190E+00 -8.954346052875E+00 -3.820664000262E-02 -4.690300008682E+00 5.029037281232E+01
 -7.565710398500E-01 1.083296138499E-01 -3.191420096992E+00 1.149823600500E+00 -6.821450923928E+00 2.064074753259E+00 -1.925798898481E+00 4.395679407349E-01 -2.599997489033E+00 4.333029668180E+00 7.407662372417E+00 -7.276149345215E+00 -2.552794990049E-01 1.108240536719E+01 -2.027361243268E+01 -1.557610659211E+00 -1.858583709359E+00 -3.476854194095E+00 4.745983354554E+00 -3.229954994747E+00 -1.615357440835E-01 3.875824361804E+00 -7.190196653510E+00 -4.906899313920E+00 1.980229933422E+00 5.821051190537E+00 -1.049590261252E+00 3.266960899102E+00 3.875090394752E+00 -8.593091846003E+00 -3.514740296377E+00 -8.015739867626E-01 2.906662170828E+00 -1.544009820746E+00 4.821222024900E+00 -1.547413399209E+00 -3.386547547239E+00 -5.693320944921E+00 3.887185139601E+00 -6.343595421890E+00 4.591122106655E+00 5.002887442427E+01
 2.682623430480E+00 -2.984600401063E+00 8.242923006701E+00 -5.576511575871E+00 2.049443974133E+00 2.328486771183E-01 1.927750450445E+00 2.600064002639E+00 -7.954269653786E-02 -8.135361648771E+00 -4.862912418690E+00 3.516365907705E+00 -1.238314178843E+01 4.162504677697E-01 3.775867297353E+00 -4.734847499963E-01 -6.084314978983E-01 1.562983560827E+00 -4.639687327212E+00 1.767638674904E+00 -1.080310038103E+01 -8.634710533370E+00 -6.025543199284E+00 4.934838692109E+00 -5.269104925528E+00 2.377381225829E+00 -7.038440180246E+00 1.231456660346E+01 -6.274890944031E-01 1.991811514524E+00 7.084765908545E+00 -3.750141673987E+00 4.254059637522E+00 3.301231312278E+00 -1.024026334500E+00 3.507853726758E+00 4.897922122960E+00 1.088120704050E+00 -2.155568558199E-01 -3.776816754536E+00 -1.078097882284E+00 -8.506210271268E-02 3.138650832425E+01
 1.167403637231E-01 -2.172148290568E+01 -3.892749467507E+00 2.877754156722E+00 -1.742994404015E+00 -3.485268194374E-01 -5.188327668875E+00 4.538009990681E+00 -6.676306429990E+00 5.414356244286E+00 -4.859836260090E-01 1.072436899425E+01 2.023923639787E+00 1.045049562247E+01 4.457203523531E-01 6.363457321271E+00 -7.238728153225E+00 1.826729980656E-02 1.040995345338E+01 4.033025440448E+00 -7.342966002854E-01 -4.248027227079E-01 -9.582403203919E+00 5.333917046627E+00 -2.912820036876E+00 1.545125955742E-01 2.848752751539E+00 -1.507169370534E+00 1.659918470720E-02 -1.355628313967E+00 6.781770813987E+00 -1.129797632019E+01 -3.626317112631E-01 -7.232488236666E+00 -6.625351296071E+00 -3.936782119771E+00 1.931657793164E+01 -3.393530670364E+00 2.830791875494E+00 5.388787598916E+00 -1.614165136546E+00 1.233602450921E+00 3.764329619410E+00 3.687998541554E+01
 4.363866263234E+00 -3.731825680312E+00 -2.134460271493E+01 1.693369944313E+01 -2.603829405547E+00 4.954496557884E+00 -1.520381376147E+01 2.263255177422E+00 1.195707910083E+00 8.157704866690E-01 -4.818311869585E-01 -8.232213559983E+00 5.836841925154E-02 6.664967433055E+00 -1.201600626511E+01 7.522255773330E+00 -2.597788858144E+00 -4.118890669580E+00 3.888877390155E+00 -3.681403507708E+00 5.088967939268E+00 5.073685994130E+00 -3.984662481771E+00 -5.765903084999E+00 -3.725885369854E+00 2.010773264853E+00 3.365042290607E+00 -2.511136082572E+01 3.947616952381E+00 -2.488830425318E+00 -7.371774235961E+00 5.181725324395E-01 -1.314158554711E+01 -5.741052164677E+00 2.220957695645E+00 -1.226883582709E+01 1.910405618097E+00 -7.514565477512E-01 1.587629533377E+00 -7.199700978170E+00 5.747326415564E-01 2.834681912086E+00 -5.158908211278E+00 1.309476689342E+00 4.558579822260E+01
 4.159722490388E+00 2.446122118402E+00 -1.349884924527E+01 5.770490274796E+00 -1.501636281918E+00 -2.119088950766E+00 -6.163361757470E+00 -1.222232907886E+00 2.391575245603E+00 -1.173666995316E+01 1.980061026287E+00 1.339044366621E+00 -1.160951568532E+01 -3.439827292437E-01 2.209672333000E+00 5.894644733398E+00 1.046863151802E+00 -3.367401100654E+00 2.021055959297E+00 -3.431789758980E+00 5.816414048142E+00 -8.825721683087E+00 -2.251906846654E+00 1.595076897610E+00 -5.861838628249E+00 1.299049662422E+00 7.853174519898E+00 -1.120966811941E+01 2.086425734427E-01 -4.821943891893E+00 -2.472002083145E+00 -4.665820731750E-01 -8.971824987711E+00 -3.179621224045E-01 2.582768015656E+00 -4.339695921814E+00 1.344687794229E+00 1.801188364544E-01 -2.166161809019E+00 -3.762855801714E+00 5.250626119735E-01 7.520552169946E-01 -4.268436460576E+00 -2.171969094138E+00 9.697730260432E+00 3.156194819188E+01
 -2.170742017973E+00 -2.106745966852E+01 -6.032986745467E-01 -6.157969815906E-01 1.341032621933E+01 -4.105544919456E-01 -8.017494972705E+00 -1.026538932977E+00 4.440409790139E+00 5.505260250965E-01 -7.118093347677E+00 -3.534626424734E+00 -2.526011427915E+00 -5.295596172081E+00 -8.953943434398E-01 8.449530294148E+00 -3.662838295820E+00 -2.860434204491E+00 1.088492881281E+01 1.183967740345E+01 -7.166503235652E+00 8.122111690116E-01 -8.806390670054E-01 -2.732132593320E+00 -3.729806756432E+00 4.541157772260E+00 2.242328616601E+00 2.697952844653E+00 -1.799020399174E+01 -1.093748149636E+00 1.093122257447E+01 -2.091109623205E+01 -4.817997679352E+00 -4.957028209494E+00 -9.594975199290E+00 2.893439342688E+00 2.461591549473E+01 -2.762265885877E+00 -1.112952540028E+01 7.660857052785E+00 -2.962423571980E+00 -4.406178363283E+00 3.269287491769E+00 1.265839811968E+01 3.477042079335E+00 -2.145927816639E+00 3.790532599823E+01
 5.667615705720E+00 -7.470540036899E-01 -2.239367804339E+01 1.731882158845E+01 1.103431801442E+00 3.417914471693E+00 -1.829004691077E+01 4.529534924106E-02 7.447007422811E+00 -2.974836443684E-02 -3.981900905953E+00 -8.473150517945E+00 2.677115354469E-01 -5.286892851249E-01 -9.675477135590E+00 7.641688472427E+00 1.238595900652E+00 -7.124296711660E+00 8.945416776181E+00 -2.441427090860E-03 1.042873260287E+01 2.735527666816E-01 9.910803035028E-02 -8.799701046003E+00 7.811791627724E+00 1.146667774410E-01 4.585563561031E+00 -2.751969450021E+01 -2.027149000500E+00 -6.563894477159E+00 -7.388146764558E+00 -4.074783564243E-01 -1.615838438712E+01 -6.875583630898E+00 -1.010669014468E+00 -7.910643934589E+00 8.939517322145E-01 3.114863916069E-01 -2.806395897598E+00 -8.655888112131E+00 -3.961964536533E-01 3.879041808882E+00 -6.881526034057E+00 5.070512402973E+00 1.465729958673E+01 6.922417774586E+00 -1.359092767553E+00 3.462504924353E+01
 -1.873293527060E+00 9.155508868282E+00 -1.108185127932E+01 9.157505320542E+00 1.173045414487E+00 3.401006494279E+00 -3.710680293367E+00 -1.081006536129E+00 3.003041775333E+00 -1.265205463257E+01 1.757081469390E-01 -1.159482777685E+00 -9.649582952801E+00 -3.634557257299E+00 2.028309869441E+00 2.906590445066E+00 3.694990118053E+00 -5.618697961865E+00 -2.238942019317E-01 -5.305379048031E+00 6.817950344173E+00 -1.312632429128E+01 -1.524379819841E+00 8.995740088647E-01 -2.598201162493E+00 1.792873938427E+00 4.343159511487E-01 -1.456894674923E+01 4.056867992805E+00 -3.179958263023E+00 -8.660683032430E+00 8.527194201299E+00 -9.027860676604E+00 1.945733683502E+00 3.632046482414E+00 -6.462361346918E+00 -1.101632948953E+01 3.161125829980E+00 -1.244465098636E+00 -7.701813348473E+00 6.888822713246E-01 1.047623218562E-01 -3.685389327411E+00 -1.041668977985E+01 9.942741550043E+00 8.271255256672E+00 -1.106731568564E+01 1.108940303397E+01 4.482472599256E+01
 -3.780980281522E+00 1.058008385528E+01 6.601247224641E+00 9.663448721124E-01 8.166817124863E+00 -2.683999743102E-01 4.239129354041E+00 -9.519170278247E+00 4.953184341982E+00 -4.678040718782E+00 -5.127647332873E+00 -1.000703482233E+01 -2.044534587231E+00 -1.645085811895E+01 -1.851495300571E+00 -3.564682641452E+00 -1.654581770316E+00 -1.354671255090E+00 -6.400923026716E+00 1.388318857320E+00 -5.944586803984E+00 -4.117212587770E+00 1.857504950663E+00 -8.644949525909E+00 8.354786135821E+00 -6.339613851585E-01 4.723298573700E+00 2.699768859076E+00 -1.071236074809E+01 3.097868865278E+00 -3.551698600065E+00 3.356412328306E+00 -5.286407269904E+00 3.922823406573E+00 -8.301553839904E-02 8.087140696346E+00 -1.008250704854E+01 3.258841422013E+00 -1.071130798031E+01 -2.307398107350E+00 -2.310103647940E+00 -6.364702081345E+00 1.349560528195E-02 -1.424901588100E+01 -2.734495315310E+00 -7.033857822842E-01 -2.201346609727E+00 9.346618203309E-02 7.390416399233E+00 3.759183943990E+01
 -6.255921795974E-01 7.186176413967E+00 1.127473222630E+01 -7.077878912826E+00 1.017433945197E+01 -3.374283071811E+00 6.810918063625E+00 -7.789127909033E+00 3.433786334222E+00 3.671932697027E+00 -1.132094173335E+01 -8.706874002682E+00 2.636885115127E+00 -1.017824588861E+01 -8.320725452923E+00 -5.239840644769E+00 7.144840692490E+00 8.214531523533E-01 -1.955138308771E+00 3.436454721361E+00 -8.710453076903E+00 1.079240842065E-01 2.204728912983E-01 -1.102257464287E+01 -5.900031842674E+00 4.304645774256E+00 2.166543011533E+00 1.094120235876E+01 -1.204580747622E+01 1.645903278927E+00 3.154505748237E+00 -1.833149260677E+00 2.239376738007E+00 4.163016276653E+00 -2.213517983440E-01 2.709136639349E+00 -2.008080259035E+00 2.092231649445E+00 -9.282109417165E+00 1.648708843434E+00 -2.532304570655E+00 -2.701702731022E+00 2.929327722119E+00 -5.282961266349E+00 -9.658224550019E+00 -4.153837822535E+00 4.798448927690E+00 -5.959739504757E+00 -3.252623509666E+00 4.504047131883E+00 3.289706130044E+01
 3.468587535816E+00 2.602927865720E+01 6.842888196093E+00 -6.423048415989E-01 -3.110965054881E+00 1.147839259984E+00 1.287438792855E+01 -3.244721660344E+00 -1.975439256380E+00 -1.264235919848E+01 -9.158207749885E-01 -2.975638082470E+00 -1.184938328474E+01 -5.116983393561E+00 -1.089254033728E-01 -6.865827588351E+00 8.084679022143E+00 1.609630689311E+00 -1.567229590087E+01 -7.660683420715E+00 -1.214107460109E+00 -1.158243351483E+01 -4.285207705434E+00 -1.439271264593E+00 7.946071526128E+00 -7.977319371811E-01 -7.946512112726E-04 4.142994765698E+00 7.234696211500E+00 2.593998813214E+00 -7.237732190615E+00 1.826246662503E+01 3.224027635975E+00 6.274480954606E+00 6.238436913572E+00 3.203250888159E+00 -2.331202967128E+01 4.308545278689E+00 4.950115625840E-01 -3.579909522089E+00 -1.189170279078E+00 -1.262052180167E+00 -4.661657983608E-01 -1.951789910840E+01 -4.170994653499E+00 1.481614460257E+00 -2.240014274451E+01 -5.097348439576E+00 1.038703603676E+01 9.493317375408E+00 -2.297519910113E+00 3.188652524158E+01
 6.176044697200E-01 -3.827673615928E+00 -8.244558715300E-01 2.474806524323E-01 4.646268771301E-01 5.536329681797E-01 1.108850871946E+00 -6.183275109426E+00 2.997542427475E+00 -1.893116128171E-01 -8.428723979337E-01 -1.008980603866E+00 -2.536743315720E+00 3.087351375327E+00 2.465463911015E-01 1.410237965416E+00 -2.218143807049E-01 1.428345665212E-01 2.525969038537E+00 7.673379239619E-01 -7.621955334788E-01 8.445546425834E-01 -1.158839482501E-02 5.226498939401E-01 4.905703843982E+00 -7.778819674035E+00 -4.304719292285E+00 8.888443792644E-01 -1.785341304153E+00 -4.212117589677E-01 1.338692890304E+00 -1.996187157794E+00 -2.313828176932E-02 -6.668523678721E+00 -9.960835952557E+00 1.515659062234E+00 5.344097618088E+00 -1.641626360827E+00 7.233596771069E-01 -4.074353604903E-01 2.467396663570E+00 1.184350436551E+00 1.028421639485E+00 4.036224681462E+00 -2.051352335644E-01 -5.269807017607E-01 2.228166213579E+00 8.363343723100E-01 -3.255470598197E+00 -4.792401522994E+00 -3.333533931350E+00 -1.960331474562E+00 2.629247665542E+01
 -7.154549656005E-01 5.136205064989E+00 1.008441839441E+00 3.086461984640E+00 1.859086164464E+01 3.971620098339E+00 -3.475177129462E+00 -8.292990619683E+00 6.158952177302E+00 -2.563435082172E+00 -1.096921776816E+01 -1.761017581426E+01 -6.855761312466E-01 -2.091030765232E+01 -9.584851982265E+00 3.151153656393E+00 9.634737883495E+00 -4.064723499788E+00 2.933525555946E-01 7.025388704130E+00 -7.613486835442E+00 -2.607879662907E+00 -3.376663918396E+00 -1.780195299236E+01 2.991988019138E+00 -1.065789307598E+00 4.839577463703E+00 -3.416987726144E+00 -2.076827758124E+01 -8.608679884427E-01 -8.930674880062E-01 -4.786494125970E+00 -6.889547106255E+00 1.188984973952E+00 -1.670489777828E+00 8.488291543144E+00 1.766059848023E+00 1.765839530267E+00 -1.892864971810E+01 1.110311487902E+00 -6.324530792290E+00 -6.544855304858E+00 -7.508605356328E-01 -3.615825447105E+00 3.278652921101E+00 3.662043077322E-02 1.304929466290E+01 6.567832069848E+00 -2.098229936679E+00 9.906151846175E+00 5.252637873430E+00 -1.490022487706E+00 2.471195345850E+00 3.714809005323E+01