#BIOSYM hessian 1
@Type: Hessian Update
@Units
 distance: 	A
 energy: 	Kcal/Mol
#header
@natom 19

#label
L1      L2      L3      L4      L5      L6      L7      L8      L9      L10     L11     L12     L13     L14     L15     L16     L17     L18     L19

#element
Li Li Li Li Li Li Li Li Li Li Li Li Li Li Li Li Li Li Li

#matrix
57
 3.273745201971E+02
 -4.232465394090E+00 3.196381137107E+02
 -1.103247058448E-01 4.255406795952E-01 5.068416451975E+02
 1.991073019426E-01 1.284539869171E-01 1.072609179904E+00 3.211451749937E+02
 -1.375779300246E-01 3.269337064981E-01 1.579800137634E+00 5.166022796703E+00 3.218122838938E+02
 8.126229220316E-02 -8.634875824660E-01 -2.392875427747E+01 -4.054328188816E+00 -8.261791643893E-01 5.064222847722E+02
 6.021492983307E+00 1.624470610792E+00 -9.337655490669E-01 3.191062219416E+00 -6.598916633708E+00 -4.461078391799E-01 1.504542579350E+04
 -2.118384066303E+00 1.070032379754E+00 -2.482766203969E+01 1.022419950331E+00 5.568846071679E+00 2.578347836195E+01 -8.246879187375E+02 9.463136442112E+03
 1.481286191079E+00 3.599502023009E-01 -2.401057810911E+01 -1.350570578402E+00 -2.508884496885E-01 -3.252477479494E+01 2.826604673203E+02 -3.910036530451E+01 1.443390266312E+03
 -4.444485380144E+00 -1.943015760628E+01 -9.758586275858E+00 4.995768283118E-01 8.881827310553E-01 -6.556878969424E+00 1.435183587547E+01 -4.636500319978E+01 2.841469826405E+01 2.209914646142E+03
 -1.910550379199E+01 -1.034021889904E+02 -8.046711620579E+01 6.018286949622E-01 2.468412014861E+00 -5.110131464822E+00 3.569127674369E+01 -1.743344164772E+02 1.418082630152E+02 -9.379715445265E+01 1.455876183407E+03
 -1.764548159028E+01 -8.320727147555E+01 -1.114100879019E+02 -4.188402511777E+00 -1.258661225732E+01 3.722198046151E+01 -1.703081765480E+02 6.048108521792E+01 -8.677177091817E+01 -4.701628414940E+02 -1.393567529636E+03 5.494014760433E+03
 -6.182972278849E+01 5.334819320188E+01 6.642862839744E+01 5.060995764885E-01 3.270378316189E-01 -7.512843149100E-01 -1.648989296153E+02 8.410388579210E+01 -1.105379322879E+02 -1.246508176147E+03 -3.608684310409E+02 -1.314748095097E+02 1.905403483980E+03
 5.525404127875E+01 -4.517498385022E+01 -3.076834043815E+01 -5.286456170432E-01 3.259669052537E+00 -2.630833115609E+01 1.678903604537E+02 -7.767138242224E+01 9.593160765573E+01 -4.523822183950E+02 -2.407164394181E+02 1.650206687122E+02 4.504372007641E+02 2.885495362856E+03
 6.304090170140E+01 -5.713380957929E+01 -9.092620491266E+01 1.363343936890E+00 -4.212579430950E+00 1.750516153235E+01 -1.899880193872E+02 7.705939064748E+01 -9.847726530400E+01 1.998086665414E+01 9.152931179985E+01 -1.617331561108E+02 5.713523484022E+02 -1.581677216679E+03 2.580868267973E+03
 -9.678468250161E+01 -3.213307196960E+01 8.528706454524E+01 1.467741881842E+00 6.010782747676E-01 -3.224814154897E+00 -2.566538442154E+02 -1.097686323926E+02 -1.389138363127E+02 1.842835514959E+01 9.596830730167E+01 -1.904400584536E+02 -1.100575128062E+02 -1.865899625586E+02 -8.050242316565E+01 1.701760898623E+03
 -3.318810833268E+01 -1.278953871156E+01 3.702696255920E+00 -2.550668535612E-01 -2.962776595181E+00 2.594936456046E+01 -8.964847645562E+01 -1.994868792059E+01 -4.879744375774E+01 -1.044777643002E+00 4.131350972112E+01 -5.483220490778E+01 -2.897867716492E+02 -1.333257488164E+03 -3.072767784300E+01 -4.453198488571E+01 2.977440726086E+03
 8.145504573463E+01 2.641942555712E+01 -7.484976216367E+01 2.070742624707E+00 -2.019065475206E+00 3.018570221108E+00 -2.139944745635E+02 -8.106102167830E+01 -1.033373678862E+02 2.042012244562E+01 8.097271264990E+01 -1.489044846141E+02 -5.813537365377E+01 4.519335585366E+01 -6.319663909492E+01 1.014117056774E+03 1.118674673220E+03 2.275120570600E+03
 -4.142420723070E+00 -1.867231874105E+01 6.030289548572E+00 -7.605442485924E-02 5.046475788647E-01 1.019621800496E+01 -8.843014030314E-01 -3.441343169668E+01 -2.802326653779E+01 1.144148971980E+00 1.300080545538E+01 -1.396565144389E+01 -1.366014866085E+01 5.570299556628E+00 -5.409669200406E+00 -8.446007804599E+02 6.976789889074E+02 -9.335836887594E+00 2.174648776231E+03
 -1.917724135477E+01 -1.021971013081E+02 8.016657687200E+01 1.667539992107E+00 4.760065171367E+00 5.396407154469E+00 -1.318960700787E+02 -2.805465954406E+02 -1.438214434923E+02 2.570446287232E+01 1.208541591452E+02 -2.498862938983E+02 -6.679632777044E+01 8.010548463956E+01 -8.920294300072E+01 5.906455292075E+02 -6.292991772142E+02 -7.933859986123E+01 -1.597198146526E+02 1.416557549455E+03
 1.722949798434E+01 8.542018840839E+01 -1.237235974376E+02 4.905205512589E+00 1.263569333093E+01 4.829940300958E+01 -2.633253390188E+02 -2.669263079705E+02 -9.052931434732E+01 4.973127715020E+01 2.791908510657E+02 -5.608600045233E+02 -1.552950835565E+02 1.633148217621E+02 -1.814488735728E+02 -2.182447363755E+02 -6.895702219561E+01 -1.649268764650E+02 2.273571383809E+02 1.373208727478E+03 5.596232203254E+03
 -6.200333015814E+01 5.264026116475E+01 -6.731164578381E+01 -1.327916987475E-01 -2.099452303063E+00 1.670059757382E+00 -1.152195150769E+02 1.479081870378E+02 1.140059860697E+02 -1.645528866529E+01 -6.009279731155E+01 1.184017736105E+02 4.114490598831E+01 -4.919348048488E+01 5.072490749706E+01 5.431871713169E+01 2.765039631912E+01 4.070190221516E+01 -1.255785549051E+03 -3.695197358875E+02 1.265068775689E+02 1.861997503401E+03
 5.382940761722E+01 -4.672692033817E+01 3.973768941671E+01 -1.216650338769E+00 2.543126087611E+00 1.729838818630E+01 7.325715200652E+01 -1.113870283427E+02 -9.583929908009E+01 1.331241938891E+01 6.419604857928E+01 -1.121730131148E+02 -4.512628664058E+01 4.275769381650E+01 -4.763677496493E+01 -5.942644972800E+01 -1.848993947605E+01 -5.007601386317E+01 -4.387776544817E+02 -2.195848628311E+02 -1.416122053837E+02 4.647262210628E+02 2.594225725746E+03
 -6.409694633703E+01 5.715238276652E+01 -7.067710037751E+01 -7.448971714175E-02 4.710517359776E+00 -3.999335289155E+00 1.014106462405E+02 -1.267068015752E+02 -1.023788304154E+02 8.566912725843E+00 5.199508038321E+01 -9.392017005375E+01 -3.369580476000E+01 4.218001428134E+01 -4.446271917163E+01 -4.568127067249E+01 -2.317052495836E+01 -3.932593478711E+01 -1.028487096119E+01 -4.947771541041E+01 -9.978014651276E+01 -4.798344347217E+02 1.118795424354E+03 1.797843649036E+03
 -9.680148685519E+01 -3.283900199604E+01 -8.233458925474E+01 2.827844133469E-01 -2.402126809746E+00 3.624878488356E-01 -1.715686327924E+02 -3.385551085714E+01 1.381343817326E+02 -8.380796505560E+02 5.986985583537E+02 1.734476875491E+02 5.644066731799E+01 -6.682473893511E+01 7.258329035372E+01 7.744437803440E+01 3.791285330133E+01 6.254682003592E+01 8.709158151879E+00 8.776329840225E+01 1.951358917643E+02 -1.020058661592E+02 -2.046017775223E+02 4.624791800479E+01 1.713822150126E+03
 -3.240772704359E+01 -1.089882964793E+01 -5.928321906726E+00 1.165844659705E+00 -1.731916265382E+00 -2.260687623518E+01 -5.074641697877E+01 -1.633212488942E+01 4.813256626783E+01 6.949775213150E+02 -6.308016417287E+02 5.200482522229E+01 2.199596386761E+01 -1.548671515427E+01 1.886519603763E+01 3.209726288226E+01 -2.231928435205E-01 2.366137287508E+01 -7.121277772263E+00 2.764738326695E+01 3.289488215092E+01 -2.806532642703E+02 -1.344652245560E+03 1.743547895189E+01 -2.588603373163E+01 2.760338288964E+03
 -8.054757688566E+01 -2.609405253130E+01 -8.093350003083E+01 -1.225881178681E+00 4.530609597878E+00 7.677050436105E+00 1.199651969176E+02 1.816100996765E+01 -9.931162305064E+01 8.615900048056E+00 7.268348942710E+01 -1.202714952368E+02 -4.074249252579E+01 5.220496501175E+01 -5.633486718264E+01 -6.110636652924E+01 -2.404114311501E+01 -4.722925961736E+01 -1.104711496361E+01 -6.802281283411E+01 -1.297846326132E+02 4.692233960937E+01 -3.509403538288E+01 -3.470680676066E+01 -1.097241436538E+03 -1.073844841968E+03 2.519166503289E+03
 9.469366731009E-01 1.123742593306E-01 1.923599823337E+01 -2.200639245608E+00 2.463888570315E+01 -5.712251092721E+00 4.637186030469E+00 5.495996659594E+01 -3.523502101544E+01 -3.083567187188E+00 -2.748434854595E+01 3.245120967709E+01 2.246715556168E+01 -9.867384689552E+00 1.978542715754E+01 2.352173411430E+01 -1.391461813930E+01 2.833792481218E+01 -8.811201203454E+00 1.855238812697E+01 4.113390686687E+01 -2.166124775616E+01 1.469809033753E+01 2.245149769619E+01 -2.415768119207E+01 -2.504710893256E+00 1.406164083529E+01 2.816030104264E+03
 -7.843644581986E-01 1.197015148179E+00 3.733456649433E-01 1.948528428434E+01 -1.012473492415E+02 -8.914269013658E+01 1.015020365389E+01 -2.491931836043E+02 1.693489028685E+02 1.568024111927E+01 6.902037741973E+01 -1.332512933046E+02 -4.434644946304E+01 5.752894842591E+01 -5.892379976615E+01 -5.135254021161E+01 -3.065868131558E+01 -4.359482232590E+01 -9.743366403289E+00 -4.623059523829E+01 -1.039026642671E+02 3.841210110297E+01 -4.767073167390E+01 -2.983394289214E+01 5.616432727716E+01 2.069637520540E+01 -4.208155205769E+01 -4.969919159294E+01 1.377337996300E+03
 2.969818804600E+00 -1.494371602033E+00 1.061720585021E+01 2.183580750202E+01 -7.866579470440E+01 -8.552835823307E+01 -1.799006099077E+01 1.862929823037E+02 -1.207666398585E+02 -8.818139255029E+00 -5.318104254554E+01 8.139700315632E+01 3.731516579404E+01 -3.905141835744E+01 5.173382286810E+01 3.562057746686E+01 3.774757203342E+00 4.863163232815E+01 -1.127120707231E+01 1.773995603351E+01 4.023031130802E+01 -2.740201492121E+01 3.276766717556E+01 8.142851965254E+00 -5.240065986726E+01 -1.361909132587E+01 3.963432550525E+01 1.324347461321E+03 -8.987858755919E+02 3.285770706314E+03
 2.886212223454E+00 -5.546324646658E-01 6.963257575942E+00 -9.593948521935E+01 3.266723994472E+01 7.816646135642E+01 -1.750157289466E+02 1.092816621427E+02 -1.701874810397E+02 -1.735173182099E+01 -9.809912092192E+01 1.729656967877E+02 6.131753639314E+01 -6.781313262310E+01 7.066881737163E+01 8.396220187966E+01 3.300271267383E+01 6.258547861753E+01 1.537838323550E+01 8.970987443213E+01 1.976567013184E+02 -5.044959526270E+01 4.306761106422E+01 3.102936086637E+01 -7.220527524145E+01 -2.538229345868E+01 4.730748442861E+01 -8.406969522690E+02 -6.388226067193E+02 -3.433915199188E+01 1.651690804775E+03
 -2.155054450557E+00 -3.022106016663E-01 -1.685201981630E+01 3.159238756494E+01 -1.510028340738E+01 -1.039015531947E+01 3.774117311571E+01 -2.419032423605E+01 5.652912115815E+01 1.019608539774E+01 5.289775843863E+01 -9.089546356886E+01 -3.338763542315E+01 2.768488703333E+01 -3.382537651746E+01 -4.512423248989E+01 -6.343988510929E+00 -3.306689430891E+01 9.664986355778E+00 -4.665668258954E+01 -6.897946014373E+01 1.695430237717E+01 -2.618764597893E+01 -3.697430800238E+01 3.184052493990E+01 1.606117240566E+01 -1.399811255683E+01 -6.932983867391E+02 -6.413518885712E+02 2.992808455530E+01 -3.470808165602E+01 2.428439394253E+03
 6.131155386210E+00 -5.801493311706E-01 1.454567146206E+01 8.257615592008E+01 -2.036559351194E+01 -8.835735384900E+01 -8.352894882846E+01 7.802992414081E+01 -1.328850117200E+02 -1.312723075944E+01 -1.044280921488E+02 1.615769215707E+02 6.707340708804E+01 -6.787622492412E+01 6.968896892188E+01 8.609910932185E+01 2.767868911540E+01 6.202922481037E+01 1.221668177185E+01 8.843933956544E+01 1.949512305098E+02 -5.586756754284E+01 3.214505275328E+01 -6.616910249408E+00 -7.192329658025E+01 -3.384575961394E+01 3.416917321203E+01 -2.749003105518E+01 7.460306800670E+01 -5.098906820714E+01 1.271224229087E+03 -1.093428320515E+03 3.337372944247E+03
 4.154090300254E-01 3.887644653653E-01 1.475439656723E+01 -6.281422618641E+01 -5.471673046030E+01 5.266649617574E+01 -8.968980585326E+01 -8.976709899248E+01 -1.364067306898E+02 -1.433589889812E+01 -8.166307147563E+01 1.475479425923E+02 5.279152383607E+01 -5.689107655798E+01 6.412388261912E+01 7.403900103034E+01 2.470052750277E+01 5.986846338345E+01 9.061152297873E+00 8.515567050565E+01 1.663450332112E+02 -5.097893854279E+01 3.673786285292E+01 3.192420905156E+01 -7.013742557107E+01 -1.141404550953E+01 5.657892036332E+01 -1.768775050018E+01 5.161260826920E+01 -4.255950667743E+01 -1.156787430444E+02 2.796165851007E+02 -7.248779568937E+01 2.195588230160E+03
 1.224174505499E+00 5.126999772073E-01 1.645214599873E+01 -5.202874566699E+01 -4.489097401847E+01 4.239073279088E+01 -6.417838957673E+01 -6.648549509254E+01 -1.145540918845E+02 -1.790117051752E+01 -7.462252213756E+01 1.183127716266E+02 5.255400847169E+01 -4.993284690265E+01 5.787239915745E+01 6.758983784237E+01 1.786458950364E+01 5.037614329407E+01 6.054701493550E+00 8.456564563160E+01 1.621283788854E+02 -3.813592185261E+01 4.494911076911E+01 3.599255009175E+01 -5.321915047192E+01 -2.133591730531E+01 2.487440661865E+01 -1.513541206740E+01 4.427911800742E+01 -3.905331307019E+01 1.865633938796E+02 -1.333253846625E+03 -6.419940261229E+01 -6.433499341423E+02 2.381208260745E+03
 1.180734055357E+00 9.553763220972E-01 1.595960600955E+01 6.654341080043E+01 5.503827723154E+01 -8.661053473626E+01 -6.578911141862E+01 -8.025211880518E+01 -1.260849219032E+02 -2.201804281443E+01 -7.949870630544E+01 1.337569083915E+02 5.562735745370E+01 -5.799179467457E+01 6.835960217669E+01 7.858778594452E+01 2.705772300940E+01 6.289729500826E+01 8.193105958186E+00 9.050954154899E+01 1.748825094677E+02 -4.709526719046E+01 5.079728780102E+01 4.497918335694E+01 -6.231413723330E+01 -3.705914401663E+01 -5.630347618773E+00 -1.990097051360E+01 5.576162678309E+01 -4.994414430912E+01 -7.347693396288E+01 2.313621196931E+01 -7.152696848416E+01 8.925641132735E+02 5.321159952114E+02 1.770586971211E+03
 1.965303438034E-01 -1.244441284581E+00 -1.785277446166E+01 -3.498951473014E+00 1.957216669411E+01 4.479354363441E+00 -1.983601324129E+01 2.677950843922E+01 3.307092789288E+01 -2.141406867185E+00 2.388977719771E+01 -4.908971380106E+01 -2.396813808390E+01 1.661407765457E+01 -2.560775526357E+01 -2.982399212437E+01 -3.849824193025E+00 -2.112742166218E+01 -3.438756243533E-01 -3.131146231320E+01 -5.017104073030E+01 2.066275036521E+01 -1.069826190386E+01 -1.892418536254E+01 2.354016797653E+01 -1.360209793457E+01 -2.111403930652E+01 1.109907403412E+00 -2.218718435939E+01 1.389919272196E+01 2.048213124539E+01 -1.192681159065E+00 2.477074970771E+01 -1.243696973773E+03 4.573194314016E+02 1.998962314882E+01 2.760484760403E+03
 -3.317380052634E-01 6.502445458666E-01 -1.094936644623E-01 1.769249176550E+01 -1.044550701531E+02 8.983312920695E+01 8.392196046739E+01 -1.873775447515E+02 -1.717686362895E+02 -1.421352526440E+01 -5.902140079497E+01 1.160033385118E+02 4.777353731575E+01 -6.550594913862E+01 6.139957343170E+01 6.699039130891E+01 3.372962760230E+01 5.382318431409E+01 1.214358460647E+01 8.069905896934E+01 1.791342343120E+02 -4.540772869766E+01 5.449685897780E+01 3.906692408412E+01 -5.730465641773E+01 -2.640312699464E+01 4.538458009775E+01 -2.505856953004E+01 4.639475492482E+01 -4.384058428795E+01 -6.336285806434E+01 3.306884321217E+01 -6.955451218729E+01 3.730354428336E+02 -2.085055702512E+02 -6.622932987291E+01 -4.236400499609E+01 1.409174110529E+03
 -1.115780565341E+00 3.372215454542E+00 1.026599891578E+01 -1.650809249043E+01 7.864352260603E+01 -8.336359100929E+01 6.625086428387E+01 -1.442118498263E+02 -1.264976178010E+02 2.823039283002E+00 -4.087394770170E+01 8.266212372417E+01 4.162958774000E+01 -5.168493669740E+01 3.824013267548E+01 6.784815389543E+01 2.216515634943E+01 5.269088188452E+01 7.566478828699E+00 7.393258721044E+01 1.411323387268E+02 -4.348069165884E+01 4.460841615125E+01 4.553874742400E+01 -4.981324828512E+01 -1.652953688036E+00 5.311337862869E+01 -1.903183860529E+01 4.787131308795E+01 -4.346634304802E+01 -6.161044883973E+01 2.546273113650E+01 -6.492297885558E+01 -5.595869052605E+01 -4.952342336795E+01 -5.981910401047E+01 -1.316450540683E+03 1.027291911305E+03 3.723573547292E+03
 1.750273590796E+00 3.141713127736E-01 -1.371357403989E+01 -9.461612749093E+01 3.381490416499E+01 -7.130178038412E+01 -2.749425805781E+02 4.078127299734E+01 1.691925516934E+02 2.008062446067E+01 9.431040403717E+01 -1.753708738591E+02 -6.045237734736E+01 5.278189993947E+01 -5.641225329930E+01 -8.506848177954E+01 -3.107963269964E+01 -6.553164869648E+01 -8.622177178380E+00 -9.927925115047E+01 -1.948106705847E+02 5.831374504647E+01 -5.405370279533E+01 -4.704132816141E+01 8.441948365898E+01 2.065960773137E+01 -5.740900697094E+01 1.599450878218E+01 -5.969896030934E+01 4.524782873365E+01 7.969730373063E+01 -3.494038008656E+01 7.869783613065E+01 6.846475902671E+01 6.130285794514E+01 7.236914048023E+01 -8.421672065815E+02 -6.216415920332E+02 4.920773974552E+01 1.620488560055E+03
 -8.028166112875E-01 -1.564406570456E-01 1.540408172723E+01 3.240036613524E+01 -1.198556135734E+01 1.210116835821E+01 1.022914334596E+02 -8.220132414411E+00 -5.573264895789E+01 3.698602065810E+00 -3.543519713830E+01 3.646805396936E+01 1.585154021813E+01 -2.583118255942E+01 3.925242753636E+01 2.937899381776E+01 1.212261539609E+01 1.737834711734E+01 4.539777037198E+00 3.894834486932E+01 7.796173468183E+01 -2.362185603434E+01 1.598390971401E+01 2.143655993473E+01 -3.267109443249E+01 -1.384398717964E+00 2.151580855537E+01 1.172133278271E+00 2.316164795316E+01 -1.026604452512E+01 -2.908602035086E+01 1.053321522511E+01 -2.629326271470E+01 -2.261400113742E+01 -2.220381855340E+01 -2.509344574448E+01 -6.946579238467E+02 -6.311580537856E+02 -4.625308033318E+01 8.985257392588E+01 2.236591190729E+03
 -4.749274999287E+00 -1.469319615459E+00 2.391260843047E+01 -8.045370027171E+01 2.040120388925E+01 -1.006233250012E+02 2.220059438869E+02 -2.082157320467E+01 -1.273591683510E+02 -1.836474814095E+01 -8.597818281192E+01 1.604395301561E+02 6.592903744739E+01 -3.769753191873E+01 1.794095761325E+01 7.980458457304E+01 2.538950485560E+01 4.207428384171E+01 4.314710714566E+00 9.755017993326E+01 1.677473200047E+02 -6.199324692778E+01 5.000951284323E+01 4.593501951389E+01 -8.320139417835E+01 -1.507160069227E+01 5.543035464848E+01 -1.311472207603E+01 6.048558255004E+01 -4.646080376630E+01 -7.706499727301E+01 3.064977094057E+01 -7.765573206830E+01 -6.105644390005E+01 -6.031652088091E+01 -6.799460016941E+01 9.490658535975E+00 -8.986204770440E+01 -6.754156567812E+01 -1.261441853706E+03 8.102916832113E+02 3.625226080789E+03
 -3.293366392839E-01 1.977403731709E-01 -1.290015099343E+01 -6.076025383725E+01 -5.297422512283E+01 -5.446135494436E+01 -1.550201995188E+02 -1.324705508009E+02 1.347021587112E+02 1.518055227982E+01 7.275413549647E+01 -1.242864533736E+02 -4.961621471823E+01 3.569222153346E+01 -4.044031089167E+01 -6.475405667089E+01 -1.479380343141E+01 -5.873739500482E+01 -2.227962400089E+00 -6.721862996741E+01 -1.383499620620E+02 4.028551258075E+01 -4.159861015110E+01 -3.764295847818E+01 5.860435114291E+01 1.653183011377E+01 -4.660699860189E+01 -1.255240073842E+03 3.824512845722E+02 4.764748403832E+01 5.617600951917E+01 -2.591136009598E+01 5.760340552404E+01 5.090353988508E+01 4.452447687214E+01 5.425321069711E+01 -1.944780161101E+01 4.892991589678E+01 4.775817515659E+01 -1.112006839686E+02 2.820296975851E+02 5.258655269560E+01 2.216689949423E+03
 3.311876738460E-01 7.998970201909E-01 -3.681345767587E+00 -5.301420969111E+01 -4.636568582611E+01 -5.728598677749E+01 -1.576334961033E+02 -1.201362959585E+02 1.158256834436E+02 1.320033567400E+01 6.655243737205E+01 -1.176834467956E+02 -3.200937378902E+01 4.788016368235E+01 -4.396507796322E+01 -4.258748988416E+01 -2.946027199230E+01 -2.121740296217E+01 -1.563154612437E+01 -5.237825793255E+01 -9.466813941426E+01 3.886350818674E+01 -3.546575342022E+01 -3.023590837708E+01 4.835883326159E+01 1.356845013025E+01 -3.258203429120E+01 4.495982450933E+02 -1.835489532978E+02 2.346649607336E+01 4.892075372878E+01 -2.750422058587E+01 5.339112916764E+01 4.630083909448E+01 4.159876789643E+01 4.929940980307E+01 -1.649775651044E+01 3.868447236735E+01 4.755144195931E+01 2.073930876389E+02 -1.334940174221E+03 7.101080582842E+01 -6.969385764612E+02 2.148159845237E+03
 3.874040365471E-01 -1.200906835631E+00 1.277234955738E-02 -6.420981461496E+01 -5.787109023381E+01 -6.936575613320E+01 1.579262115084E+02 1.458069519251E+02 -1.285059790056E+02 -1.203586212761E+01 -6.189063016130E+01 1.080384576125E+02 3.613759842063E+01 -5.317643386361E+01 5.359041465168E+01 4.293302858277E+01 4.632732488496E+01 -1.424157177968E+01 1.231136500312E+01 4.781301031508E+01 9.893639984681E+01 -3.364788291771E+01 3.910280001141E+01 3.201791939420E+01 -5.169454805807E+01 -2.386852660672E+01 4.432105954627E+01 -5.806069668383E+00 3.955183847388E+01 -3.600037723194E+01 -5.533545770838E+01 2.558511043176E+01 -5.239141082823E+01 -5.062341537454E+01 -4.596570124243E+01 -5.227134570673E+01 1.936023263522E+01 -4.765491192407E+01 -5.029247106544E+01 5.824219474665E+01 2.731509025086E+00 -5.486171343829E+01 -9.386789896800E+02 -2.858276868985E+02 1.693260153771E+03
 -7.813825786139E+00 -1.210666350136E+00 -3.938794985225E+00 -4.259841946932E+00 1.045316159324E+00 8.586610256929E+00 -7.089181347987E+03 8.855751564192E+02 7.254932392168E+00 -7.785533135815E+01 -2.118154811034E+02 5.466920938779E+02 1.209459214943E+02 -1.705475491341E+02 2.015725698281E+02 1.735638407560E+02 8.555152524764E+01 1.684546603312E+02 -1.298967382189E+01 2.353116099112E+02 6.250480880135E+02 -1.334817256677E+02 3.119838385950E+02 2.949737052834E+02 -5.228445701445E+02 -5.391189434580E+02 9.987261836404E+02 -1.005596581701E+02 4.478724255095E+01 -2.569835978857E+01 -6.693270922001E+02 5.356543031500E+02 -1.468375549929E+03 -1.820072229441E+02 -2.756909337053E+02 -2.962506294976E+02 5.544168423743E+01 -1.348705292660E+02 -1.234671415334E+02 1.987911446883E+02 -7.076629283055E+01 -1.985377146563E+02 1.283133407143E+02 1.294524056036E+02 -1.095537557716E+02 8.734366888712E+03
 2.038030422534E+00 1.045380235965E+00 -2.052196081180E+01 -3.093624000525E-01 1.457011811416E+00 2.215349229718E+01 7.145721233716E+02 -1.026632230858E+02 4.986483824508E+00 5.849621967365E+01 -8.021208854339E+00 -1.079388095396E+02 -3.559553164546E+01 3.852444523878E+01 -5.554388625214E+01 -5.734367576860E+01 -1.251350751188E+01 -4.503749349644E+01 -3.320776370805E+01 -1.087925886227E+02 -1.807584510817E+02 1.893333422726E+02 -9.917653592191E+02 -1.162333678075E+03 -4.302642009375E+02 -6.641006747020E+02 1.149659019646E+03 -7.385871071371E+01 -1.750958664145E+02 1.512275790140E+02 5.174280638983E+02 -4.344069813345E+02 1.230659436701E+03 -4.330396443252E+01 -6.737244057429E+02 -6.534101075916E+02 -5.450405666273E+00 3.513509650704E+01 3.325687587689E+01 -5.778344411402E+01 1.433965707282E+01 5.203792913835E+01 -4.077440436548E+01 -3.310232366137E+01 4.401646119431E+01 -7.830331693627E+02 4.393171212756E+03
 -1.694482047461E+01 2.372288589661E-01 -2.613778342317E+01 4.845273231743E+00 -1.799026908590E+01 1.581507206247E+01 1.162329996284E+02 -2.956240344690E+01 1.103874132229E+01 -2.489983021194E+01 1.426515366261E+02 -1.857161398396E+02 -4.912679381459E+01 4.238606830420E+01 -4.294260112093E+01 -6.273235129448E+01 -1.163686075769E+01 -4.241169802509E+01 -4.005109798265E+01 -1.005994131923E+02 -2.091504805305E+02 2.101196572801E+02 -1.164202021048E+03 -1.392110200482E+03 9.120256571461E+02 1.224489736093E+03 -2.152404491940E+03 7.677155524803E+01 7.099150482341E+01 -8.026354467483E+01 -1.154949417023E+03 1.080984457718E+03 -3.039156724092E+03 -4.229451001239E+01 -6.554988083249E+02 -6.544015003894E+02 -4.270553387146E+00 4.411787594155E+01 3.598371998893E+01 -5.536302883247E+01 1.163167609988E+01 4.502670486960E+01 -3.292551503890E+01 -4.286769408511E+01 3.619510667337E+01 2.690469063278E+02 -6.843850145411E+02 7.375565465884E+03
 -2.346219829021E-01 -4.205915162950E-02 -5.189211193912E-01 -1.478929301214E+00 -3.083720913165E+00 2.686977095678E+00 -1.302391199532E+02 -7.135168368490E+02 -1.578026603980E+01 4.078899039884E+00 1.278996996789E+01 -1.999226713619E+01 -1.025310921310E+01 6.534532116469E+00 -1.222924047362E+01 -3.078404770012E+02 1.847485582235E+02 -2.823561702271E+02 -1.949575102006E+01 -5.614968272364E+01 -2.417904097029E+02 -3.402141281405E+02 -6.789008947319E+01 2.679678576041E+02 1.636595109509E+01 -2.029251060849E+00 -4.473624796533E+00 -6.442279359201E+02 3.278559362404E+02 -1.358941538165E+03 -5.305151215560E+01 -4.074476244346E+01 -1.515570057188E+01 1.037466858228E+01 8.259726475713E+00 1.938665069952E+01 -4.096367442630E+00 1.138559388628E+01 1.219087907870E+01 -1.961870548099E+01 2.510289160524E+01 2.065597198643E+01 -7.458766532181E+02 1.599979706218E+02 8.828887059492E+02 -4.574659156012E+02 -4.285597320333E+02 1.235093790281E+01 2.947308756986E+03
 1.172292226257E+00 -8.942022360777E-01 5.117147741808E+00 -1.428922458464E+00 -4.331808218323E+00 -6.242611274802E+00 -8.152262688466E+02 -3.882910521584E+03 -6.031075382705E+01 3.582734509048E+01 1.391925079107E+02 -2.623774183265E+02 -8.337548538722E+01 1.042961398385E+02 -9.606091694214E+01 5.927134771037E+01 -1.703086123523E+02 6.432642568367E+01 -8.384391416330E+01 -5.523310320729E+02 -1.946268233107E+03 1.313969369506E+01 -1.020543836866E+02 -2.599749082050E+01 1.120906847722E+02 4.039431339839E+01 -7.745185918143E+01 4.031309950419E+02 -2.803916379135E+02 8.493031821404E+02 8.135001232145E+01 -7.812903793776E+01 9.938088201106E+01 1.008730914589E+02 8.572300022827E+01 1.163335910713E+02 -4.036310156701E+01 8.271849303592E+01 1.089724893524E+02 -1.123188198092E+02 1.812391471336E+01 1.256051997913E+02 8.981031335168E+01 -1.307361624418E+02 -1.269865867026E+02 -1.389507858186E+02 -4.609769256520E+02 -5.730792952861E+01 1.512842035889E+02 5.656631020359E+03
 -5.581196934666E+00 3.724976088022E+00 2.770393918645E+01 -1.190232825844E+01 -2.574267614631E+01 -2.914528200998E+01 2.283497763149E+02 1.242291676625E+02 -2.072544718608E+01 -4.334978795471E+01 -2.263019571509E+02 4.921796407416E+02 1.173051605708E+02 -1.405426740489E+02 1.440272451182E+02 -8.280009991706E+01 2.251869263471E+02 -1.201889567116E+02 -1.891775458923E+02 -1.214783772834E+03 -5.268007817188E+03 1.736745719226E+02 1.519036719129E+02 -1.446670041249E+02 -1.475027617580E+02 -2.877943846237E+01 9.806317446951E+01 -1.442536711803E+03 7.969427408783E+02 -3.024096535954E+03 -1.939452853309E+02 3.659747809594E+01 -1.685124143916E+02 -1.302142038417E+02 -1.395324873317E+02 -1.371387598092E+02 3.988056395020E+01 -1.373782848521E+02 -9.674192337623E+01 1.596082703495E+02 -8.087778610925E+01 -1.408678318117E+02 9.895935106627E+02 -1.474479525187E+02 -1.116320377695E+03 -5.329361001624E+02 1.673183017433E+02 1.845983963087E+02 7.554300413129E+02 1.057859995296E+03 9.691919110521E+03
 1.568087873590E-01 3.774805744266E-01 5.933367642845E+00 -1.474670687064E-01 -3.500769197103E+00 -6.683917977866E+00 -7.666325298039E+01 -6.065244652619E+02 6.684650837434E+00 -5.027546182463E+01 -1.392357923883E+02 5.263708100301E+02 -3.816358163177E+02 -8.558800121951E+01 -3.050710666343E+02 2.350057453985E+01 -2.704963775373E+00 1.206792110406E+01 9.855483563393E-01 2.388887750506E+01 4.354048870662E+01 -1.435184743367E+01 9.753026263575E+00 1.434501783557E+01 -2.670747786891E+02 1.578465946073E+02 2.353232398120E+02 -5.547407665522E+00 1.771686968301E+01 -1.319941323059E+01 -2.683765973196E+01 2.590648102583E+01 -2.401400371637E+01 -7.398620489201E+02 1.503595858999E+02 -8.140880624511E+02 -5.752082186070E+02 3.234120372066E+02 1.368927204257E+03 -6.379552119996E+01 -5.484409666795E+01 2.303813351265E+01 1.169414851113E+01 1.357283093473E+01 -2.333803535895E+01 -4.209139599528E+02 6.110735535339E+02 3.120767923062E+01 2.116443299744E+00 3.489993319564E+01 -3.520965377008E+01 3.284074875937E+03
 7.733434420799E-02 -3.627557254843E+00 3.562540340538E+01 -1.831265011753E+00 -8.553506242244E+00 -3.688678339530E+01 -4.396657241684E+02 -3.886321639002E+03 3.461685328501E+01 -1.750262107360E+02 -6.209191339608E+02 1.985635179675E+03 6.043826815455E+01 -1.550975440915E+02 1.055913101460E+02 1.808565099973E+02 5.470837621786E+01 1.397529452357E+02 1.354746110437E+01 2.188533585776E+02 4.628626234818E+02 -1.168454440265E+02 1.080537438433E+02 8.543048676733E+01 -2.012978368796E+01 -1.316149035201E+02 -5.417533441250E+00 -4.453421109873E+01 1.129365378703E+02 -1.088976008887E+02 -1.591709476971E+02 5.107144280141E+01 -1.772760643827E+02 2.962039205172E+01 -1.871897013831E+02 2.316013067441E+01 4.212686791103E+02 -3.730366622058E+02 -1.020814831741E+03 1.273739760102E+02 -7.735860702818E+01 -1.345866115350E+02 1.119133759521E+02 1.036466077269E+02 -1.278695528898E+02 1.210824868495E+02 -8.335653343080E+02 1.116015856069E+02 1.418877399585E+01 2.245692582933E+02 -4.172597648986E+02 1.302758240425E+02 5.948649851460E+03
 2.520019336224E+00 -8.829180102689E+00 2.287140758029E+01 6.802265980570E+00 2.558660323839E+01 -2.672184918228E+01 1.475291710283E+02 4.046251256726E+01 -1.978040345033E+01 4.410187493755E+02 1.228381745807E+03 -5.210522686307E+03 -2.255890934091E+02 -1.698774723577E+02 -1.459269622643E+02 1.302880493732E+02 3.323511358429E+01 1.032008259811E+02 7.410920797547E+00 1.809940054893E+02 4.365698496018E+02 -7.871782425499E+01 7.844794528988E+01 5.839820186743E+01 8.520341302886E+01 -1.670759219216E+02 -1.210640471546E+02 -1.567943437502E+01 9.039450127614E+01 -3.652513110286E+01 -1.295858276279E+02 9.210198005706E+01 -1.285396583509E+02 -9.072810137121E+02 1.132875777267E+02 -9.735513336305E+02 1.459285018040E+03 -9.009501150715E+02 -3.466234437935E+03 1.669545406777E+02 5.245238691628E+00 -1.302168387315E+02 8.356848633196E+01 8.738889229033E+01 -6.560790730026E+01 -4.222701171409E+02 8.162537189190E+01 1.378096353975E+02 1.209999698518E+01 2.118539259284E+02 -4.151217386350E+02 -1.001094262799E+03 -9.414801713133E+02 9.943192931433E+03