#BIOSYM hessian 1
@Type: Hessian Update
@Units
 distance: 	A
 energy: 	Kcal/Mol
#header
@natom 2

#label
H1      H2

#element
H  H 

#matrix
6
 7.980675800309E+02
 -1.644872163209E+02 3.390194641404E+01
 0.000000000000E+00 0.000000000000E+00 0.000000000000E+00
 -7.980675800309E+02 1.644872163209E+02 0.000000000000E+00 7.980675800309E+02
 1.644872163209E+02 -3.390194641404E+01 0.000000000000E+00 -1.644872163209E+02 3.390194641404E+01
 0.000000000000E+00 0.000000000000E+00 0.000000000000E+00 0.000000000000E+00 0.000000000000E+00 0.000000000000E+00

