#BIOSYM hessian 1
@Type: Hessian Update
@Units
 distance: 	A
 energy: 	Kcal/Mol
#header
@natom 6

#label
L1      L2      L3      L4      L5      L6

#element
Li Li Li Li Li Li

#matrix
18
 1.024289015770E+03
 4.760884099102E+01 2.230591482857E+03
 -2.955213518281E-06 1.143792445619E-06 2.240846120721E+03
 6.846038862995E+02 -4.099960923495E+01 3.846058955915E-06 1.836102085656E+03
 -1.528726124349E+02 1.497794382396E+01 -1.909787129451E-06 9.731446545253E+01 2.215563553651E+03
 8.408537288820E-06 -1.649045389550E-06 0.000000000000E+00 -7.280273634167E-06 3.111349475931E-06 2.240846120721E+03
 3.442518990115E+02 -3.247708865928E+01 3.786921184057E-06 -2.101386242554E+02 6.336171347611E+01 -9.459119908063E-06 1.975509744559E+03
 2.547929138900E+02 -6.967491964830E+00 9.781681566847E-08 -1.418011664448E+02 2.919267714156E+01 -6.895824277553E-07 -5.326505671628E+01 2.186597714724E+03
 -9.258199993398E-06 -1.665811981490E-06 0.000000000000E+00 2.491476373036E-06 -1.094565513207E-07 0.000000000000E+00 3.973830446308E-06 1.777247815528E-06 2.240846120721E+03
 -3.730098825949E+02 3.996923024888E+01 -4.837256992841E-06 2.306125657298E+02 -7.418196003155E+01 1.240561928692E-05 3.461785748815E+02 5.097205272063E+01 -5.202208664270E-06 1.781376625408E+03
 -2.481453928580E+02 8.234346755506E+00 -3.104401392572E-07 1.402009084001E+02 -2.956023738006E+01 9.592487904640E-07 5.634474252736E+01 5.195257236721E+01 -1.503933491974E-06 -5.569809154643E+01 2.190996208649E+03
 6.661613420477E-07 3.245444713807E-06 0.000000000000E+00 3.699452952071E-06 -2.150957463123E-06 0.000000000000E+00 6.863673155830E-06 -1.068645792443E-06 0.000000000000E+00 -9.358783163056E-06 6.051213986465E-07 2.240846120721E+03
 7.351381425848E+01 -3.219445871150E+01 4.765864056899E-06 -6.072976027624E+01 4.446431947170E+01 -1.475682846415E-05 -4.152578479488E+02 3.163951297955E+01 7.086794464969E-06 5.909068097105E+02 -2.283094784874E+01 1.232811237799E-05 1.295476224619E+03
 3.450918660098E+01 -1.475549734769E+01 2.299835307057E-06 -3.718849216054E+01 1.407462085305E+01 -3.280423598991E-06 -4.443674241588E+01 -1.912432962609E+00 -1.393409450863E-06 5.797606825958E+01 3.562511206602E+00 3.588147475577E-06 -6.387933345490E+01 2.224570311574E+03
 5.858667968140E-06 3.457702622854E-07 0.000000000000E+00 -1.051193656118E-06 -5.100152110865E-07 0.000000000000E+00 -6.144759612469E-06 -8.185324622364E-07 0.000000000000E+00 8.606505407806E-06 6.508027579556E-07 0.000000000000E+00 -1.391357097913E-05 1.408428406364E-06 2.240846120721E+03
 4.871973879761E+02 1.809308536576E+01 -4.606373685740E-06 -2.396040324327E+02 2.191407406610E+01 1.068206543064E-05 2.003023744734E+02 -1.423382564291E+02 9.083073733338E-07 -3.352185724149E+02 1.301287813256E+02 -1.419861666487E-05 7.569368803578E+02 5.301931317061E+01 6.644350871795E-06 1.371232082761E+03
 6.410706381108E+01 8.765336597119E+00 -1.321217299638E-06 -1.752610601254E+01 -3.402437368821E+00 1.548453149901E-06 1.047243178765E+01 -1.801691858463E+01 2.895363660123E-06 -1.903729965067E+01 1.566071912205E+01 -4.219110332466E-06 4.280090756354E+01 1.530660739726E+01 -1.076453753284E-06 -8.081699749885E+01 2.222532813558E+03
 -2.725442107870E-06 -1.416620163379E-06 0.000000000000E+00 -1.691714603535E-06 1.560978261878E-06 0.000000000000E+00 9.810715100877E-07 7.020111876686E-07 0.000000000000E+00 -1.614241124035E-06 -4.020731458287E-07 0.000000000000E+00 4.476997771657E-06 -2.612733461515E-06 0.000000000000E+00 5.733285536705E-07 2.168437321178E-06 2.240846120721E+03

