#BIOSYM hessian 1
@Type: Hessian Update
@Units
 distance: 	A
 energy: 	Kcal/Mol
#header
@natom 19

#label
L1      L2      L3      L4      L5      L6      L7      L8      L9      L10     L11     L12     L13     L14     L15     L16     L17     L18     L19

#element
Li Li Li Li Li Li Li Li Li Li Li Li Li Li Li Li Li Li Li

#matrix
57
 1.265917548807E+02
 -1.182571694672E+02 1.647311187324E+02
 -9.161329439108E+01 1.237895215368E+02 1.061124392904E+02
 -3.171112559598E+01 3.894406295957E+01 4.175020342546E+01 1.065266211882E+02
 -4.492048513833E+01 6.237328948917E+01 6.036721274734E+01 4.373324522452E+01 1.116344525715E+02
 -1.323923238354E+01 2.300817628561E+01 2.917427463133E+01 1.501044935918E+01 7.785853879632E+01 7.946607992527E+01
 3.579120578211E+00 -3.860982451685E+00 -2.257781770868E+00 -2.702109372588E+00 5.663303345817E+00 4.063104263198E+00 2.211464233228E+01
 2.238762820029E+00 -6.088416111260E+00 -4.483185163619E+00 3.968485282607E-01 3.869660853881E+00 -1.072672755405E-01 7.217688351738E+00 8.722659682132E+00
 2.152051647616E-01 -9.753504289985E-01 -1.805115298814E+00 -3.880381815463E+00 3.371583406843E+00 6.290700435273E+00 1.764097121696E+00 -2.470271516381E+00 1.010831889919E+01
 -5.529951236282E+00 8.248800681770E+00 5.108676255559E+00 -2.529812171789E+00 4.877502125555E-01 -2.757356155411E+00 -1.626030618963E-01 1.422193735256E-01 2.216073849493E-01 1.043080509084E+01
 8.575522356611E+00 -4.389535607678E+00 -3.282784345878E+00 4.432933466149E+00 -5.767033950854E-01 1.955703065269E+00 -3.943467501425E-01 -1.266219428283E+00 2.158530534519E-01 -2.690915600882E+00 9.996462633754E+00
 5.973058555960E+00 -3.161737232019E+00 -5.564818512884E+00 2.432077836389E+00 -2.654603970971E+00 -1.193583740085E+00 2.768591401066E+00 -9.274549863876E-01 -3.241556507573E+00 -4.127910829142E+00 4.180588672983E+00 2.682490602777E+01
 1.720487187654E+01 -2.136883460404E+01 -1.634454597174E+01 4.513445851749E+00 8.073493966033E+00 5.564203826688E+00 3.881211584274E+00 4.010151796167E+00 -1.613960698785E+00 8.555225412360E-02 -2.759261534006E-01 2.292910169105E+00 3.404753401111E+01
 1.260561241360E+01 -1.800953105811E+01 -1.134736230513E+01 1.022089288517E+01 5.472748969600E+00 4.655274062137E+00 1.330335607765E+00 1.351827394777E+00 -1.798525215833E+00 -3.003284468409E+00 4.063684901754E-01 2.839474960186E+00 8.971728627225E+00 2.013253715841E+01
 -1.671169982302E+01 1.944770825201E+01 9.302026637477E+00 -1.349095252189E+01 -7.458625900606E+00 -1.017676485858E+01 -2.853626318174E+00 -1.778656456596E+00 2.873399733406E+00 3.461780247942E+00 -2.856778942888E-01 -5.186704200079E-01 -5.600372877354E+00 -2.186618805074E+01 3.998070455828E+01
 -1.569626940502E+01 8.983978525647E+00 6.830934498498E+00 2.509762046665E-01 -7.113887919367E+00 -5.732844356449E+00 2.464972794390E+00 1.011978996105E+00 -1.772271931001E+00 1.898267292720E+00 -3.247197287478E-01 1.959150137152E+00 -5.796838942334E+00 -1.248937452733E+00 -1.396639115215E+00 2.450597123163E+01
 3.693853371285E+00 -2.058637324036E+00 4.440660469669E+00 -8.199750923949E+00 5.398811767319E+00 6.451294254264E+00 -1.236248464001E+00 1.232094335740E+00 -2.170288861999E+00 -1.743573849344E+00 -4.676118154763E+00 -3.266701987449E+00 4.588360172059E-01 -2.414811815611E+00 2.269115723058E-01 -8.255572208543E+00 2.820082705880E+01
 -8.800422639853E+00 5.789153883734E+00 2.457556929184E+00 -3.004297119960E+00 -3.158741358179E-01 -7.842763254425E-01 -8.729613074843E-01 4.546701048916E-01 -6.514773906365E-01 1.300837055230E+00 -2.916887188233E+00 -3.360462378521E+00 -6.391016091312E+00 -9.320752770050E-01 -3.072185145284E+00 4.307203773416E+00 5.789292264966E-01 9.788125931457E+00
 4.334224725439E+00 -5.073294194919E+00 -4.756433357310E+00 -2.837512900792E+00 5.434417966886E-01 1.795984203460E+00 -1.458426605900E+00 -7.839834939746E-01 1.381439511612E+00 1.858946589676E-01 -5.146015175373E-01 -1.523554488828E+00 -8.930879658864E-02 1.982425585202E+00 -2.745858924128E+00 -2.078514392455E+00 -4.283925553347E-01 7.757504326676E-01 6.535105050955E+00
 4.734456964305E+00 -3.987904614239E+00 -1.983121578841E+00 2.657282612361E-01 5.120808577796E-01 1.046739243369E+00 -8.477543885302E-01 2.162581117639E-02 -9.848474130145E-01 -8.340702715985E-01 -7.079021523408E-02 9.366878774700E-01 1.863295322365E+00 2.011225909853E-01 9.140390133559E-01 1.252371929531E+00 6.789472841886E-01 -8.482765546931E-01 1.517902833938E-01 5.163630583034E+00
 5.921952760112E+00 -4.896558585834E+00 -3.940800882973E+00 1.072497814364E+00 1.649216395050E+00 2.313218548504E+00 -5.629564657261E-02 -4.769435191736E-01 1.608539777044E-01 8.552573996622E-03 -1.568402791643E+00 3.882633368691E-01 2.722482646673E+00 2.077093310047E-01 -1.866161270084E+00 -2.088884997025E+00 1.774524265778E+00 -2.072091053030E+00 4.716927097285E+00 2.481720055253E+00 1.184220508703E+01
 -4.508413901191E+00 5.837942578776E+00 3.856698615239E+00 -2.910424645720E-01 -8.173043239185E+00 -5.286118123915E+00 -1.657499788861E+01 -6.296721717654E+00 -3.678188952932E+00 -2.365695017458E-01 -5.295385717415E-02 -1.901308581557E+00 -7.822017492468E-01 -1.516691440202E-01 1.150274781826E+00 -1.225363994340E+00 4.585172810774E+00 2.538718468969E+00 1.436861559357E+00 -8.852615417213E-01 -1.306620936602E+00 2.224566588945E+01
 -5.605111368962E+00 4.259873530516E+00 2.703168647658E+00 4.807651681373E-01 -2.864732070475E+00 -4.815602572736E+00 -5.317677395441E+00 -2.861392812256E-01 -1.799002091209E+00 1.173956612566E+00 -1.653713804189E+00 -3.936202971435E+00 3.791884167918E-02 1.122569849150E+00 2.851375616156E+00 -2.245638693137E-01 -1.187257478388E+00 -1.058984753041E+00 -1.262962595212E-02 5.708767036698E-01 -3.223961893346E+00 3.125549263610E+00 1.458637037681E+01
 -3.438422092344E+00 4.801816682511E+00 3.235883391978E+00 2.268932741764E+00 -2.333479069609E+00 -3.113317722582E+00 -6.842261180811E+00 -2.709968132734E+00 -2.156472600773E+00 3.675596635919E-01 1.034772752002E+00 -5.487756022166E-01 -1.797982871476E+00 -8.360581937377E-01 1.949233776711E+00 -1.153427985020E+00 -5.794777940946E-01 3.579276687154E-01 1.194676685598E-01 -4.781465903726E-01 -7.440130214825E-02 5.600139781571E+00 1.038729315757E+00 4.790614215646E+00
 3.977561408266E+00 -3.062991913520E+00 -3.259634021634E+00 2.157939300543E+00 2.147407892240E+00 1.260443532598E+00 -1.832878120333E+00 5.580058188086E-01 -9.465368698838E-01 -3.872543304875E+00 4.278877338145E+00 1.251524033540E-01 -3.216924420532E-01 -2.245587587771E+00 -1.447610450556E+00 -1.373041755888E+00 -3.258710431552E+00 -1.194033977284E-01 -1.268847327881E+00 2.634458372871E-02 -9.733831983591E-01 6.689570417508E-01 -3.671124474721E-01 5.011594932360E-01 2.033420256409E+01
 -2.833191970727E+00 3.201355579811E+00 1.908711563739E+00 -7.726062148297E-01 -3.198952336288E-01 -8.355437557760E-01 2.439780702361E-02 -5.438936679764E-01 3.307345466892E+00 8.580082001714E-01 -1.643232217497E+00 -1.457310734293E+00 -1.643632641484E-01 8.224195768431E-01 1.032087527750E+00 -2.111843437201E+00 -6.984870767710E-01 -1.803307239992E+00 6.145377621600E-01 -1.624892848071E+00 1.977031148770E+00 -7.035954415586E-01 -1.048138982665E+00 7.366213032104E-01 -8.768878328850E+00 1.580045388736E+01
 -1.045309473743E+00 -4.761322803962E-01 -2.560774339638E+00 -8.644765518807E-01 2.147026505696E+00 6.189077709613E-01 -1.647404606326E+00 1.311832153457E+00 2.444560760574E-01 9.631987217637E-01 -1.814722275458E+00 -6.297896299188E-02 8.122739013685E-01 -2.181503777141E+00 1.087389208143E+00 8.980708158150E-03 1.925078741364E+00 1.058895001770E+00 5.572178243531E-02 -5.599126072059E-01 -5.837997335204E-02 2.257412511410E+00 -6.746927632694E-01 1.178699788673E-01 1.061971509512E+01 -4.993959709767E+00 1.314584283555E+01
 4.299827613725E-01 -2.187417003365E+00 -1.560513030362E+00 1.267981634854E-01 -1.321627259315E+00 1.487720532153E-01 -4.584081654319E-01 8.216392657381E-01 -1.225081701665E+00 -4.687880539323E-01 8.230538772677E-01 4.087690126381E-01 2.507903707711E+00 4.104163020709E-01 1.587202062010E+00 4.091717098650E-01 1.481442627501E+00 -1.320509630172E+00 -1.497529811692E+00 1.191586227715E+00 -6.586201411484E-01 -6.532229548796E-01 -1.035063676062E+00 9.595965017586E-01 -1.096254143625E+00 -2.176131541652E-01 -6.566749031202E-01 9.111164466964E+00
 1.687440419852E+00 -4.998422310819E+00 -1.697054074454E+00 -6.236719381406E-01 2.543251998063E-02 -1.093763322387E+00 -8.560414148949E-01 8.197598613156E-02 -3.170050326671E-01 -1.354395624636E+00 -8.595225489978E-01 -1.802941338038E+00 -1.034641480526E+00 1.084373736673E+00 -1.070067370848E+00 7.307412491161E-02 1.135158570804E+00 2.396766511025E-01 6.796416743094E-01 3.250636300309E-01 9.312183130923E-01 1.847620669864E+00 3.330426452561E+00 -8.469061623859E-01 8.547907927170E-01 2.600011148591E+00 -1.195369072945E+00 -8.657504380374E+00 1.500551099291E+01
 1.496886396620E+00 5.724352855437E-01 2.239680678752E+00 1.611832517402E+00 7.588095885400E-01 -5.851959709371E-01 5.287833873881E-01 -6.688642786018E-01 -3.269056934989E-02 -7.280062738798E-01 8.195050755430E-01 3.155572796850E-03 8.512437036334E-01 -6.885637386642E-01 8.299947068085E-01 -6.356766103665E-02 -1.825046775674E+00 -2.640429800530E+00 -1.316976934567E+00 1.311089806276E+00 -7.630466324135E-01 -1.077986478096E+00 3.495296542891E+00 -1.030031813209E+00 3.586174362107E+00 -4.041201107046E+00 -9.447047048232E-01 -5.139042396655E+00 5.277192961576E+00 9.535706134323E+00
 -2.829476177912E+01 3.128667706209E+01 2.461625160055E+01 2.437361638224E+00 -8.023352427557E+00 -1.331487082860E+01 7.388135489151E+00 2.475267398668E+00 -6.468538841817E+00 5.407782241118E+00 -3.465461241764E+00 5.712048584828E-01 -3.602640451998E+00 -5.460248231818E+00 2.734214328441E+00 3.256573673407E+00 2.155681919579E+00 -2.441348728556E-01 -1.733836355917E+00 -7.022184551103E+00 -1.758821851404E+00 -4.528187788662E+00 1.730394245860E+00 2.178052447912E+00 -3.248837598698E+00 -2.899468063806E-01 -1.221420868920E+00 -2.021527332431E+00 -5.506520864463E+00 4.023495670587E+00 7.887566256277E+01
 -2.785624398634E+01 3.114499488708E+01 2.329020927358E+01 1.085308716667E+00 -7.044575235898E+00 -1.087072176079E+01 6.610248481995E+00 6.553899004763E-01 -5.028711772601E+00 4.773868404529E+00 -3.104889705061E+00 1.359149668796E+00 -4.587016950570E+00 -5.604527834809E+00 1.486896262567E+00 2.219323295006E+00 2.923216677172E+00 1.854987780569E+00 -1.243991314253E+00 -8.695929967380E+00 -2.416419859898E+00 -1.696066672427E+00 -2.211269398083E+00 1.433031504682E+00 -1.603678821774E+00 -3.183024641267E+00 7.625002664677E-01 -2.400293669237E+00 -7.517386392075E+00 2.666754786562E+00 6.985358420620E+01 6.845221134307E+01
 3.808128372524E+01 -4.082083657516E+01 -3.360463242139E+01 -4.727199064489E+00 1.184858768747E+01 1.666026867353E+01 -9.398253964136E+00 -1.849050378078E+00 8.816558105718E+00 -6.713419974279E+00 1.753381398599E+00 -2.197413025500E+00 7.157908935595E+00 5.010161118991E+00 -2.311824197003E-01 -5.518919520197E+00 -2.766345564387E+00 -4.475075756068E-01 1.396974142322E+00 1.052253440799E+01 3.159629224380E+00 3.984975284159E+00 5.932045050092E-01 -3.388273480508E+00 3.268256896720E+00 3.200800115329E-01 1.373371601680E+00 1.093382134227E+00 8.722459397928E+00 -2.427889363096E+00 -1.010830839340E+02 -9.194620232439E+01 1.363730927987E+02
 -2.171712487106E+00 1.710514412548E+00 1.130926090032E+00 1.472998619952E-01 -3.418548802630E-01 -2.091210138391E-01 8.604869157445E-01 6.208815002532E-01 -1.826272813090E-01 -3.251997526831E+00 -2.555522464609E+00 1.837397966863E-01 4.539880984524E-01 2.704927614054E+00 -2.812111998206E+00 -8.722995952188E-01 1.053304905530E-01 2.597189747042E-01 3.777062605119E-01 -1.370094893873E+00 -5.884245682143E-01 1.170668070921E+00 3.753200566293E-01 -6.136844547466E-01 -5.767912193222E-01 2.428889662316E+00 -3.677766012820E-01 1.073132939475E+00 -6.792659263901E-01 -2.086195837813E+00 1.935983143901E+00 3.230055158919E+00 -2.267416924873E+00 1.495026132465E+01
 -2.632446067812E+00 2.040576704573E+00 6.737574989835E-01 -1.577693333918E+00 -5.701955530898E-01 -3.385315426693E-01 6.622971316694E-01 1.494672720314E-01 -1.492694831009E+00 -1.898480616751E-01 -3.667575344143E+00 3.358974655390E+00 7.941401256424E-01 1.527239087764E+00 9.458937639669E-01 5.861264871764E-01 4.227941952240E-02 5.238008715072E-01 1.347552726000E+00 1.530348331361E+00 3.659755742804E-01 2.120476127032E-01 2.957773991561E+00 -1.424315761062E+00 -9.242182070511E-01 -7.142982030687E+00 1.909336192134E+00 1.822268071053E-01 -1.581723596628E+00 7.042174547893E-01 -3.783427966970E+00 -1.151575332147E+00 5.838353473369E+00 1.017188858453E+01 1.983592396840E+01
 -5.082158656457E+00 4.199138173159E+00 4.500959763719E+00 1.546266108890E+00 -2.528221584725E+00 -2.593125253310E+00 9.591385633987E-01 5.974493147130E-01 -1.003158874735E+00 1.910060606713E+00 3.882481805721E-01 -1.610004118894E+00 1.011157761808E-01 2.361707769144E+00 -2.315920258307E+00 -2.228675267157E-01 -6.255475735481E-01 2.869181170560E-01 7.754168966707E-01 -2.749749235605E+00 -1.444983262207E+00 1.582148376802E+00 1.040090933010E+00 3.248776742221E-01 2.279502737300E-01 1.622352180056E+00 3.051750405521E-01 8.203064121206E-01 -8.059256585835E-01 -1.649877509257E+00 7.735667925051E+00 7.368523332202E+00 -1.495482422994E+01 4.503636712375E+00 3.872998601484E+00 1.177485221486E+01
 -8.696626025381E+01 9.773923529827E+01 6.439841168200E+01 -2.396360864534E+01 -3.039009495329E+01 -4.347409840617E+01 -5.012133600362E+00 -6.095993668496E+00 1.057792195084E+00 1.060819889677E+01 -1.149380752295E+01 -5.989959865404E+00 -3.281897737713E+01 -1.411496350638E+01 1.451066518276E+01 1.264555357235E+01 8.461105501304E-01 1.250509411435E+01 -1.647717178780E+00 -3.684925650320E+00 -8.235056618666E+00 7.202354088542E+00 7.605200222971E+00 2.092674571903E+00 -3.905633527657E+00 1.887610840465E-01 4.392090024575E+00 -1.250519193509E+00 -2.092158385644E+00 -6.281678349953E+00 1.727118436935E+01 2.135536816574E+01 -2.697199540050E+01 3.100479690112E+00 8.367535011257E+00 4.895216070585E+00 2.307583109021E+02
 1.276778344212E+02 -1.508319991381E+02 -1.323751930980E+02 -1.126272169435E+02 -1.405444869082E+02 -9.637012343123E+01 4.304080716614E+00 4.982968760398E+00 3.942413020907E+00 -4.391896989360E+00 5.825362556847E-02 1.844873465833E+00 1.003071600577E+01 7.021977658968E-01 -6.136206983974E-02 -6.986243544213E+00 5.905896676000E+00 -4.216463787655E+00 2.894006180312E+00 3.106508477772E+00 3.210607725796E+00 -4.814756730595E+00 -3.071982301722E+00 -7.227608190329E+00 9.912482287380E-01 1.748055892984E+00 -3.418192669421E+00 2.275362193644E+00 3.857657339487E+00 4.829109877506E-01 -4.170187407557E+01 -3.618368097312E+01 5.632654939427E+01 -4.137999727046E-01 2.297293755714E-02 -3.791892823380E+00 5.067532694978E+01 3.973985060682E+02
 1.269465663574E+02 -1.543526802519E+02 -1.303824107718E+02 -7.979563919193E+01 -1.077782960539E+02 -6.622317041896E+01 6.962820870582E+00 5.829927361904E+00 -3.830602507362E+00 -3.111392135897E+00 -1.877522265863E+00 7.279016973759E+00 5.792612767575E+00 1.426240614292E+01 -1.615392572544E+01 -6.552196384376E+00 3.334420862503E+00 1.588864282393E+00 4.318200135152E+00 6.239779751424E-01 3.592197865809E+00 -1.168986902684E+00 -4.344280982703E+00 -3.136458830443E+00 -2.927594646700E+00 3.363288039095E+00 -7.459603341863E-01 -6.455377031225E-01 4.254242215535E+00 -2.758848854147E+00 -1.054648202792E+01 -1.167589936046E+01 1.442686431420E+01 -1.059560603405E+00 -3.716314572691E+00 -2.516553846847E+00 -5.969093102696E+01 1.935372677042E+02 2.443573484150E+02
 1.409365706611E+01 -1.680429443425E+01 -1.425763576785E+01 -2.692433740415E+01 -6.610171032293E+00 1.268723081088E+01 -9.549735594333E-01 -1.620738310881E-01 1.420232774424E+00 -5.277208656719E-01 6.313974329104E-01 -2.489119477693E-01 -2.600910905460E+00 2.337117277492E-01 2.555915056948E+00 -1.072956665019E-01 -9.923323414433E-01 1.555976916967E-01 -2.608275054215E-01 6.530773579120E-01 8.306768421054E-01 6.594617188144E-01 -1.938042551343E+00 8.247028534928E-01 -1.565631688338E+00 2.881261983513E+00 -1.320834230731E+00 -1.538416699811E-01 2.319632955865E+00 -1.236175086813E-01 -1.418879539268E+00 -2.297046804428E+00 1.837404761827E+00 -8.459986661921E-01 -2.819931452901E+00 -4.939459779707E-01 -1.549974134479E+01 1.345796222018E+01 1.839953672080E+01 3.377757155410E+01
 3.097534735811E+00 -4.766710930917E+00 -4.195919500154E+00 -1.348235657521E+01 -4.940589793258E+00 1.066749672516E+01 -1.428622407789E-01 -1.716252630223E+00 8.366004563671E-01 -1.938514201408E-01 7.908127126839E-02 3.030169436423E+00 8.212604794394E-02 -2.834031537477E+00 -1.162186083278E-01 3.309788589088E-01 -8.665062359677E-01 2.773018944925E-01 6.702390942574E-01 4.876865363256E-01 -8.517214863075E-02 1.065661385154E+00 -6.312470621068E-02 -5.359331914491E-01 -1.693272231589E-01 -1.210495728254E+00 -1.344851909060E-01 -1.074700013638E+00 -3.354614699956E-01 6.199320878244E-01 7.953109826419E-01 5.321928721851E-01 -9.829097914861E-01 -9.364101418072E-01 1.206450306629E+00 4.650324714337E-01 -1.513531349075E+00 -9.237552058622E-01 -9.432676200642E-01 9.939846083414E+00 1.531599673346E+01
 -9.111561606633E+00 7.732676494132E+00 5.476407797770E+00 9.178868816131E+00 3.581253835717E+00 -4.435199542329E+00 -9.886925722205E-01 1.189657710791E-01 -2.299344069165E+00 1.383201294338E+00 1.713305970975E+00 -2.737442465881E+00 -1.329850947576E+00 -4.465646148287E-01 6.610943174450E-01 -2.584121105924E-01 -2.002420540543E-01 -1.701079324258E-01 2.614645614202E+00 -8.857545257629E-01 6.107874853955E-01 -2.085521080855E+00 2.235971640035E+00 8.529214993448E-01 1.444399117921E+00 -4.434485833249E+00 6.317186520483E-01 3.321455973748E+00 -3.572333572849E+00 -2.988707959973E+00 2.487975830651E+00 3.800298279569E+00 -5.702587474568E+00 -2.849575130170E-01 3.776239748322E+00 1.840452594130E+00 1.586863887840E+01 -7.526244381760E+00 -1.787801582325E+01 -1.613829239479E+01 -5.265702058331E+00 2.280647112700E+01
 9.619968703422E+00 -2.208198444894E+01 -1.285023300130E+01 2.934177715847E+00 7.392952791924E+00 1.134433114515E+01 -1.639238043293E+00 -1.666312384483E+00 3.686877460645E-01 -3.083256306001E+00 1.997111916359E+00 7.264274959450E-01 -1.996692764911E+00 -1.228547865849E+00 -9.399574585393E-01 -2.338926490872E+00 2.146715407220E+00 -7.369320979374E-01 1.755738627640E+00 -4.068968428041E-01 2.469507331498E+00 5.219552900091E-01 -1.950518533862E+00 1.427407668843E+00 4.200323649015E-02 -7.884562381911E-01 -1.136127127477E+00 1.969960193736E-02 -8.157859053870E-01 1.308736686327E+00 9.355987151417E+00 6.704715716837E+00 -1.034448394200E+01 -1.482835783907E+00 -2.690989831392E+00 -1.508054417830E+00 -7.650399163304E+01 -6.373341210804E+01 2.807856505264E+01 -3.869380849445E-01 1.605000773345E+00 -1.499007642231E+00 6.068572056691E+01
 2.493807448628E+01 -3.863340471084E+01 -2.471148172416E+01 2.027086145582E+00 7.729229637671E+00 1.483205098520E+01 -2.304596496758E+00 -4.461215494897E+00 1.709763633598E+00 -3.141877148926E+00 1.914880717415E+00 -7.421830130740E-01 2.409220236782E+00 1.460278884608E-01 1.262636278828E+00 -3.737316172799E+00 1.921050982205E+00 -2.756411338316E+00 1.870681707043E+00 -7.219983236111E-01 3.323569254088E+00 1.646921414697E+00 -3.675075237334E+00 2.197355627618E+00 6.699429126880E-01 4.738835139547E-01 -5.319394044961E-01 3.642185352388E-01 -3.840472081386E-02 2.342274926314E+00 1.096346665240E+01 8.546229928192E+00 -1.334830102058E+01 -1.184398470227E+00 -4.326591267423E+00 -9.946531182721E-01 -1.196765614717E+02 -8.958296764406E+01 5.035046645332E+01 1.683761673163E+00 -1.203515278145E+00 -3.936002725932E+00 8.188790416748E+01 1.289194296044E+02
 -2.152406082029E+00 8.600599712953E+00 2.031831936163E+00 8.029171861443E-01 -3.143738595538E+00 -4.343652006171E+00 9.458100538258E-01 3.627777859280E+00 -1.272933280158E+00 2.051278805922E-02 -1.471947786515E+00 -2.259376649332E-01 1.346241520983E-01 -5.984492588401E-01 -3.918318249156E+00 1.023685237842E+00 1.040473639223E+00 9.493247666905E-01 -4.883393047227E-01 4.722963414217E-02 1.533537169373E-01 -5.866463390509E-01 4.983600881895E-01 -1.249489628364E+00 2.946451808923E-01 -3.461655773158E-01 1.717793247593E+00 -5.090995485753E-01 -2.546724821442E-01 -8.762799629675E-01 -1.602134927384E+00 -1.338393542894E+00 4.186936674315E+00 1.491211184928E+00 5.658574549318E-01 -1.600747982401E+00 2.353699522758E+01 1.925758186147E+01 -1.150915930414E+01 -7.180968323085E-01 1.122136198178E+00 -1.094145938659E+00 -1.684510082487E+01 -2.952548785504E+01 1.546245888456E+01
 7.955250806898E-01 -5.246221458455E-01 -6.853289340283E-01 -3.517379568011E-01 3.375222069256E+00 3.192532485162E+00 -1.373908840031E+00 -9.314847994164E-01 7.863763696617E-01 -2.025087271062E+00 1.917381214117E+00 4.119541651020E-01 -1.400966143949E+00 -1.553250937133E+00 1.369158144818E+00 -5.352442262174E-01 1.701978232312E+00 -1.432602399971E+00 2.670026411054E-01 8.700806035353E-01 1.469184438967E+00 -1.166079458184E+00 3.323129505928E-01 3.320253325179E-01 8.822512661247E-01 8.762482458806E-01 -8.585475910570E-01 3.569280017419E-01 1.152378427412E+00 2.309769838987E-01 -3.529820503675E+00 -4.960343366042E+00 4.830484365309E+00 -1.504499864867E+00 -1.910048467121E+00 1.170036793746E-01 -1.267904996372E+01 2.979329841725E-01 -9.738574039798E+00 1.540099078505E+00 -5.013631688326E-01 -2.061252551774E-01 2.139644105848E+00 9.727157161922E-01 6.022905914366E-01 1.046458470364E+01
 3.985913157901E+00 -6.706515922823E-01 -2.502232259078E+00 -6.885519443481E-01 -1.527246835310E-01 1.933707779081E-03 2.444132840770E-01 8.519743601181E-02 -1.559309122275E-01 -5.912248628125E-01 1.036976734150E+00 1.316401569385E+00 9.968206352089E-01 -4.759910654426E-01 -5.133559762611E-02 -3.983819069748E-01 -9.355382187502E-01 1.945206704933E-02 -1.758427857914E-02 8.251745892689E-01 8.116165865452E-01 -8.853252713599E-01 -5.606613913586E-01 -5.966225211379E-01 3.823825892526E-02 -3.451334642105E+00 -3.497249391058E-01 -1.225176801794E+00 -7.736338879528E-02 1.328320348242E+00 -2.172384952171E+00 -1.058961065020E+00 4.749168476699E+00 -7.124497253327E-01 1.961421000240E+00 -3.095062735757E+00 -3.510430299519E+00 2.141667057265E+00 -7.679339163901E-01 1.712191152108E+00 -1.105307521576E-01 -1.025565135488E+00 3.319096466235E-01 -3.026118592271E+00 3.328366718425E+00 1.959481949383E+00 5.986266627812E+00
 7.800338780254E+00 -5.103366921991E+00 -2.940014916331E+00 -2.886457495011E-01 1.056083164291E+00 2.571718463390E+00 -4.421959480095E-01 -3.557574706836E+00 1.604749530105E+00 -1.924122874897E+00 2.655685157634E+00 1.510067949126E-01 5.985637956711E-01 9.877578260460E-02 4.325814175831E-01 -1.037524312029E+00 -1.115340969615E+00 -2.204902762304E+00 -4.468480623269E-01 1.350007982952E+00 1.543995028750E+00 -1.695298858307E+00 -9.032335112673E-01 1.043828994555E-01 1.796525269293E+00 -2.269003066752E+00 -2.354151212451E+00 -4.199653811261E-01 1.251605178668E+00 2.794422647192E+00 -5.430033965079E+00 -4.484698347517E+00 6.794170545399E+00 -1.606882840749E+00 -1.785144609504E-01 -7.607592646287E-01 -1.758476511132E+01 5.903232395127E+00 -6.501413312515E+00 3.015044763922E+00 -1.718331580790E+00 -7.342098099942E-01 5.490276751313E-02 3.747407726382E+00 -3.725967380663E+00 9.368486849814E+00 3.228083656094E+00 1.651247145788E+01
 -7.465729513061E-01 2.014155669861E+00 3.229752792055E+00 -3.592630185877E+00 2.177957359267E+00 -1.168828261972E+00 -2.238602448266E+00 6.701186894800E-01 1.289502372235E+00 -1.449052864845E+00 2.742926722146E+00 -2.055273495225E+00 -3.375528064590E+00 -1.560888005572E+00 2.824534334922E-01 8.057618851621E-01 -1.922581995512E+00 -6.732393612737E-01 3.331808108200E-01 -5.596915714278E-01 -8.984579745993E-01 -1.105933148663E+00 -5.951571852648E-01 -7.458878116075E-02 -3.055669567357E-01 3.968759280807E-01 -3.702767032455E+00 -1.565653044243E+00 9.545623509414E-02 3.191685027558E+00 -1.163393162256E+00 -7.665994829294E-01 2.133683340591E+00 3.552418268149E-01 -2.854628308970E-02 -2.241796915675E-01 -5.180899510147E+00 1.166348729160E+01 -6.274034021042E+00 -2.178436671568E+00 -1.691993920425E+00 1.007162240510E+00 1.080360916885E+00 -2.000828570724E-02 3.377321250669E-01 -3.831910367114E-02 -1.076640658007E-01 -5.225746590248E-01 1.610957077929E+01
 1.083061141437E+00 -3.702809459727E+00 -3.047824570331E+00 1.047570840138E+00 -1.996430353369E+00 -1.204526941885E+00 -5.052486197155E-01 -3.850484992286E-01 -1.333590828290E+00 2.623032080440E+00 -5.562070923723E-01 -1.379576079187E-01 1.666772476842E+00 2.287439750344E+00 6.849196868398E-01 8.217473650154E-01 1.852253425056E+00 5.396603273961E-01 4.494509604597E-01 1.427405193057E+00 -3.162055468829E-01 5.322198093250E-01 1.532414588467E+00 1.494862234367E+00 1.383030217513E+00 1.280985106630E-01 4.945400599152E+00 2.495339774263E+00 -3.354126578546E-01 -5.065004934028E+00 8.054786886648E-01 -1.567270487464E+00 -3.702410960971E+00 -1.004115721394E+00 -6.793071925943E-01 1.380149201095E+00 1.114067174992E+01 -1.599320059675E+01 2.624266577907E+00 7.497145587550E-01 1.210971492315E-01 4.446775091633E+00 -2.821508223990E+00 -1.270017400854E+00 -1.858543821666E+00 -3.763238504200E-02 -2.258677907819E+00 -1.339663475611E+00 -1.256824046384E+01 2.094571556982E+01
 2.910696389477E+00 -3.627189527849E+00 -1.432646418572E-01 -7.018671656593E-01 -1.650701533208E+00 -1.201956386631E+00 1.258608563687E+00 -8.898282560940E-02 -1.003631011531E+00 -1.677557317808E+00 9.814170763458E-01 3.234352355702E+00 -8.507143791945E-01 1.263444303038E+00 -3.508450271084E+00 2.212795934582E+00 4.657156425588E-01 -4.608049680569E-01 -9.058700463320E-01 4.610532769097E-01 -2.490249530985E+00 9.691716543255E-01 1.833550473270E-01 -5.291513562586E-01 1.078779822064E+00 8.960580283051E-01 2.243020388849E-01 -1.364386282275E+00 8.038916652219E-01 2.194659290892E+00 9.758135101917E-01 -8.701309065313E-01 -1.514704336395E+00 6.037428378309E-01 -1.392009058343E+00 1.127667065085E+00 -3.939931199963E+00 3.561940564539E+00 1.049086128563E+00 -2.050383315231E+00 3.784445586030E+00 -5.275951323038E+00 1.398337792734E+00 7.330700568509E-01 9.243253507284E-01 -6.441484819631E-01 -2.946615999688E+00 -3.431002081504E+00 4.236926158534E+00 -2.069156527458E+00 1.193365801100E+01
 -3.902262390291E+01 3.446877406929E+01 2.369227522335E+01 -2.579640756707E+01 2.519102514120E+01 1.754320852324E+01 -2.285176976968E+00 -1.630352569099E+00 6.082989836338E+00 9.919234829384E-01 -1.143689284010E+01 -9.125513495062E+00 -1.260054388022E+01 -1.588555523427E+01 2.399414737777E+01 -1.316207946331E+01 2.081263879768E+01 3.103333997283E+00 4.786581887959E-01 -2.799075215805E+00 2.173358312347E+00 9.826177120106E-01 -4.115183239883E+00 2.471518814104E-01 -2.692971420639E+00 3.938348480649E+00 7.704388898827E+00 5.578062481909E-01 -1.268091499121E+00 -5.405846927654E+00 -3.655790136715E+00 2.695584180788E+00 4.689799306298E+00 3.919188222430E-03 2.203533192047E+00 -2.574793948601E+00 1.894284859176E+01 -3.430277427806E+01 -2.824202148368E+01 2.367940576004E+00 -4.787120472527E-01 2.816968987331E+00 5.222022749877E+00 9.518307720306E+00 -4.932454103691E+00 3.292871411323E+00 -1.919390094636E+00 6.275924667362E-01 -2.563108300550E+00 2.107668963650E+00 -7.190241251896E+00 8.711775454691E+01
 -1.273827573455E+01 -1.019173185950E+01 -7.674431399251E+00 3.678107405392E+01 -4.544187153606E+01 -3.471143017846E+01 -4.192721991842E+00 -2.945162370710E+00 -2.397186789770E+00 1.183721320528E+00 4.401479431493E+00 3.033836359679E+00 -1.399707454164E+01 -7.160879454225E+00 4.622963727090E+00 2.411328822264E+01 -2.871603903897E+01 1.697544869338E+00 -3.158056206554E+00 -3.221937709674E+00 -2.105426445467E+00 1.742075554223E+00 -2.598316265365E+00 3.629188449500E+00 1.455465158773E+00 9.342807288966E-01 -3.569387910432E-01 -4.184250887148E-01 -5.846343904187E-02 -1.714331533352E+00 7.571219261208E+00 8.111729935962E+00 -1.415517208117E+01 -1.010451746749E+00 -3.046761147013E+00 8.881336196307E-01 8.255318647889E+00 -5.756755438489E+00 1.345922709406E+00 -2.609060452385E+00 -2.897863980484E-01 2.247402975205E+00 -1.743389836840E+00 4.185724421405E-01 9.582980369699E-02 -4.167471160474E+00 -1.129788666711E+00 -2.414664042512E+00 -1.669085389913E-01 4.053356061056E-01 -9.749406842714E-01 -3.249967544439E+01 1.057187352783E+02
 -7.810035492767E+00 -1.919816058698E+01 -1.406958421583E+01 2.575535237467E+01 -2.270040876934E+01 -2.806882381461E+01 -2.542916126221E+00 6.456633673778E+00 -5.903779597862E+00 -1.974438465071E+00 -1.817242280013E+00 -6.656751943071E+00 1.362225872175E+01 1.380566051154E+01 -1.363146852920E+01 4.169718171401E+00 -1.084585922573E+01 9.499280310201E-02 2.846106354056E-01 -1.627676524034E+00 -4.446438968087E+00 4.255285968316E+00 7.683803447805E+00 2.087199006459E-01 1.827802976752E+00 -2.973150244258E+00 7.425262815697E-01 2.694607897504E-01 2.275398359340E+00 1.630076391073E+00 8.919619478518E+00 6.197845620440E+00 -1.150247051275E+01 3.255825114865E+00 1.720938579573E+00 5.683270944427E+00 5.762333456780E+00 1.404681582334E+01 1.371438892177E+00 -6.821557813999E+00 -4.135977373272E+00 3.669742733433E+00 -1.009715527989E+01 -1.531172839083E+01 6.573296551255E+00 -3.424718350032E+00 -5.304454269084E-01 -4.625356603887E+00 5.732878666290E-01 3.049740151260E-01 1.903228566104E+00 -2.744735274671E+01 3.331379034347E+01 5.975687675899E+01