#BIOSYM hessian 1
@Type: Hessian Update
@Units
 distance: 	A
 energy: 	Kcal/Mol
#header
@natom 19

#label
L1      L2      L3      L4      L5      L6      L7      L8      L9      L10     L11     L12     L13     L14     L15     L16     L17     L18     L19

#element
Li Li Li Li Li Li Li Li Li Li Li Li Li Li Li Li Li Li Li

#matrix
57
 2.176011147833E+03
 3.469910834897E+01 2.074546005199E+03
 9.838583319353E-01 2.039705275594E+02 1.409844642277E+03
 -8.972735798117E+00 -7.599863549454E+00 -5.464422803305E+00 2.237749211338E+03
 4.312108108585E+00 8.872922845946E+01 1.571260495474E+02 1.836233939902E+01 2.011462685694E+03
 5.784039435430E+01 -1.346808398370E+02 2.435653282199E+02 2.363091476928E+00 -2.068639543684E+01 2.069880879529E+03
 -1.465869798110E+00 -7.633027786212E+01 9.811548798721E+01 -6.410934821292E+00 6.288692967226E+01 -3.943324168453E+01 2.196137172691E+03
 -1.847823806759E+01 -7.153097399771E+01 3.423476426484E+01 -1.131321876571E+01 1.181557909069E+02 1.189485357663E+00 -5.470142014779E+01 2.154135880111E+03
 1.054039943447E+01 1.361581986383E+02 -1.396151058080E+02 1.564304927027E+01 -1.101847664664E+02 8.533363758623E+01 7.205751605316E+01 8.271216084650E+01 2.097394264599E+03
 -1.148050367780E+00 7.722192246994E+01 -6.072703768205E+01 6.691559333204E+00 -9.994935738112E+01 1.615555776600E+01 5.265812931860E+01 7.687254230941E+01 -7.112403367433E+01 2.165535365965E+03
 -2.106088638465E+01 -9.592939299050E+01 1.628188147805E+01 -1.551801732415E+01 1.703830798576E+02 3.975926865624E+00 -7.260676445803E+01 -1.176799360793E+02 1.113088156666E+02 1.038196634890E+02 2.079879203024E+03
 -2.094211937628E+01 4.517576334151E+01 -6.059119454591E+01 -7.387345521288E-01 -1.490203840402E+01 4.255174783310E+01 1.806405800137E+01 1.316363583198E+01 -2.709320795980E+01 -1.953926688029E+01 1.764642667896E+01 2.225718727037E+03
 -3.683229919703E+01 1.323436560379E+01 1.171276500771E+01 -5.167758476565E+00 1.474213260218E+01 3.741181433646E+01 -8.012986734352E+00 -2.279433727210E+01 1.009262259771E+01 1.259521339234E+01 -2.817280858077E+01 -9.461572470052E+00 2.216533355144E+03
 6.816356610037E+01 8.086537034372E+00 -1.156077633108E+02 9.244689217856E+00 -4.499724549737E+01 -6.048325350351E+01 4.041249780855E+01 7.512116203609E+01 -3.975738357124E+01 -6.073763984930E+01 9.307655081468E+01 6.708129326807E+00 5.438904053997E+01 2.092472061979E+03
 -6.863745748210E+01 -1.759607691228E+01 2.822580060307E+02 -4.847243633710E+00 -5.169602464905E+01 1.950583707667E+00 -3.340788707477E+01 -3.590826397189E+01 3.831312795058E+01 2.776081614522E+01 -3.315592201782E+01 -2.940012226287E+00 -4.779292175846E+01 1.324446815734E+02 2.061034572869E+03
 -1.070440215164E+02 8.690538232139E+01 -4.839888147226E+01 -1.019832361799E+01 5.387887814236E+01 1.778594166588E+02 -1.183442166995E+01 -7.327229613214E+01 -2.260783799662E+01 4.770294409918E+01 -9.180822656291E+01 -3.616590999463E+01 -7.960367281683E+01 1.891569442748E+02 -1.346641830032E+02 1.930395909805E+03
 -1.878684676531E+01 3.923459455957E+01 4.431302726317E+00 1.861261749981E+00 -3.158198747360E+01 3.653221762857E+01 1.217550876328E+01 9.526489868175E+00 -3.065384578304E+01 -1.080390301594E+01 1.573810830545E+01 -1.090844049411E+01 -1.208072245167E+01 2.622208805868E+01 -3.045461211497E+01 -5.231482237496E+01 2.224159805024E+03
 -5.380968874821E+01 -4.745507735534E+01 2.131297121927E+01 -1.666731281334E+01 1.050511310256E+02 2.197943769408E+01 -4.655997456500E+01 -8.000470541437E+01 8.739848728633E+01 5.748143379655E+01 -1.072179291203E+02 -9.955990502486E-01 -3.742889541028E+01 8.776650937771E+01 -5.971668259088E+01 -9.959169860088E+01 2.931425948224E+00 2.139665307570E+03
 1.030334116394E+02 -1.443640634724E+02 4.950606930921E+01 1.618939337705E+00 2.769231870489E+01 -1.975803018280E+02 -2.161605077463E+01 2.490085183092E+01 8.749124058242E+01 -6.899580688053E+00 2.400035332932E+01 4.680450596064E+01 7.388856862883E+01 -1.701523647836E+02 1.371716662866E+02 3.071153676411E+02 6.836896357875E+01 5.203435129928E+01 1.900878620759E+03
 -1.894231361100E+01 7.890925315722E+01 1.408488702185E+01 7.350311364281E+00 -9.798108771045E+01 4.312763883354E+01 3.732713530634E+01 4.909050799863E+01 -7.298796398409E+01 -4.631593011895E+01 7.138414527987E+01 -1.927530996540E+01 -7.637061182353E+00 7.495070731157E+00 -3.485301844598E+01 -3.954524316195E+01 -2.718396288187E+01 3.669565541007E+01 8.189253351655E+01 2.182221929473E+03
 -5.383881766866E+01 -1.077933387239E+02 4.810753350946E+01 -2.367594634297E+01 1.766515065236E+02 -3.755742600137E+00 -8.092710079209E+01 -1.266062843936E+02 1.492829865954E+02 9.941352465782E+01 -1.716267697390E+02 1.193357677924E+01 -4.183793039793E+01 1.088862623304E+02 -6.393079789528E+01 -1.012328163812E+02 1.762940233847E+01 -1.430454265798E+02 2.066980987930E+01 7.584049078907E+01 2.024759321864E+03
 3.176316637244E+01 -2.785845953967E+01 1.226719763588E+01 3.655775149137E+00 1.159529277899E+01 -2.950803593392E+01 -7.332080212667E+00 -2.863737789468E+00 4.203886938702E+00 1.269621210578E+01 -5.612632107303E+00 1.325676608372E+01 1.561408610414E+01 -2.181305613838E+01 2.692262869944E+01 4.176862236777E+01 9.913481415469E+00 1.800404500979E+01 -4.515385114077E+01 1.502079571076E+01 1.218780605264E+01 2.223291146184E+03
 2.659752884560E+00 7.797105464566E+01 -4.315076341198E+02 -7.305670078519E+00 8.607304706211E+01 8.300060110250E+01 4.919528910572E+01 2.754655154307E+01 -3.808714572254E+01 -4.687968506193E+01 1.951208356337E+01 -2.836239958525E+01 1.619814393403E+01 -1.008045694258E+02 1.708751416970E+02 4.661831046189E+01 1.896538156474E+01 6.183073991944E+00 -5.802968267503E+01 2.535944459013E+01 1.225877895637E+01 9.582587924066E+00 1.978613007153E+03
 3.433843749786E+01 1.229060205365E+02 2.820066006988E+02 3.552263852532E+01 -3.450830078321E+02 -3.114302275255E+01 8.526893939993E+01 1.653799875690E+02 -1.860265731871E+02 -1.228585329038E+02 2.412609256520E+02 -1.008065942920E+01 2.756538601022E+01 -4.812798604533E+01 -8.538363388393E+01 5.989721460477E+01 -5.304825848735E+01 1.784141162693E+02 7.033114482795E+01 -1.499052899745E+02 2.865128230857E+02 -2.252912194113E+00 1.896887073737E+02 1.670655323682E+03
 1.642892115231E+01 8.754849722841E+00 -4.903915385684E+01 2.771940236728E+00 4.569130752597E-01 1.869736528004E+00 9.235636241169E+00 1.101093590152E+01 -1.729811712854E+01 -7.042728625762E+00 1.259168049696E+01 5.218393531783E-01 1.014202207409E+01 -2.507205572626E+01 3.330525075287E+01 2.380795355744E+01 3.261919364798E+00 1.906346219688E+01 -1.930871071045E+01 1.519919289245E+00 2.382656644497E+01 -6.917012611292E+00 -2.447780712392E+01 -4.681308994734E+00 2.233892423347E+03
 -6.072347829580E+01 -6.529158361408E+01 5.425585874769E+02 6.111400600412E-01 -1.350915263630E+02 -7.928259644915E+01 -5.040354568364E+01 -2.272048374553E+01 6.007186281082E+01 2.702527150461E+01 -5.659943754939E+00 1.421717312797E+01 -4.371330168622E+01 1.470219859818E+02 -2.591990193348E+02 -9.547076023732E+01 -3.395827531329E+01 -4.218695935338E+01 1.112478178342E+02 -5.225843089856E+01 -4.254858356854E+01 2.207951003780E+01 3.037918617764E+02 -2.238612399294E+02 4.499701024944E+01 1.814683826487E+03
 3.737688046439E+01 -4.266683079617E+01 -5.949735718561E+01 6.126469322781E-01 8.246859106817E+01 -8.334624844773E+00 -2.237778001023E+01 -3.814148555566E+01 1.954579090108E+01 4.588800420132E+01 -5.685879028600E+01 1.710651498488E+01 1.230811975674E+01 -5.879426308361E+00 5.059716646582E+01 1.289151736489E+01 1.594979263868E+01 -4.655791535755E+00 -3.607231301871E+01 4.086857525882E+01 -2.837878008374E+01 -2.553893174545E+01 -1.638811408860E+01 8.978435026638E+01 -1.035613848190E+01 7.797909575798E+01 2.180349598342E+03
 8.636973604520E+01 2.944379416090E+01 -1.330401636972E+02 1.542840078640E+01 -7.587780112598E+01 -5.737989592955E+01 5.620605213983E+01 9.860054787412E+01 -7.489627944951E+01 -7.590579498662E+01 1.242808328916E+02 6.453228565983E+00 6.533015714886E+01 -1.711367309736E+02 1.518144032716E+02 2.083628648027E+02 2.285325796175E+01 1.215640282073E+02 -1.723430588524E+02 -6.354390336547E+00 1.571747596155E+02 -2.878571998133E+01 -1.012448062476E+02 -1.077016325800E+02 -3.269696015713E+01 1.651843103311E+02 -9.751134320331E+00 2.034719665852E+03
 2.266334998296E+01 4.333103901662E+00 -5.419908468093E+00 4.579450993772E+00 -3.549754321453E+01 -2.680386831689E+01 1.538792472260E+01 3.226846460648E+01 -1.799945598053E+01 -2.539196990330E+01 4.230530322687E+01 2.674605207602E+00 1.853132045660E+01 -4.847505125877E+01 3.214643501257E+01 6.602185529870E+01 5.940213952181E+00 3.602337453284E+01 -5.364630262056E+01 -5.367838963493E+00 4.760487012643E+01 -6.671340343002E+00 -1.525121850350E+01 -4.864512328677E+01 -7.112342969523E+00 2.439803035789E+01 5.147888008615E+00 -5.772086302762E+01 2.222727587004E+03
 -9.827497477914E-01 -3.204040057052E+01 3.810179456125E+01 -2.961555344522E+00 2.747137407125E+01 -1.690166284179E+01 -1.866569450608E+01 -2.279280202370E+01 3.128371810739E+01 2.146402728616E+01 -3.035793617780E+01 7.345968036473E+00 -3.228461349535E+00 1.565575120881E+01 -1.275902400313E+01 -3.337209926697E+00 5.644142436383E+00 -2.024406245718E+01 -1.132254161080E+01 1.641708598043E+01 -3.508239494539E+01 -2.726084119466E+00 1.747676813058E+01 3.921517241973E+01 3.804640935247E+00 -1.867040878296E+01 -8.785611005139E+00 2.282834891317E+01 6.199184619943E+00 2.233103212609E+03
 -4.200620587133E+01 -2.614426746663E+00 7.925833832836E+01 -4.736283010010E+00 2.757932714167E+01 4.394997919204E+01 -2.638968494241E+01 -5.022773195510E+01 1.944563713427E+01 4.285331915234E+01 -6.191459452386E+01 -3.795409111896E+00 -3.588330620216E+01 1.021256857690E+02 -8.912724724313E+01 -1.319630924025E+02 -1.948740817183E+01 -5.399540044794E+01 1.219789283398E+02 -7.524939937388E+00 -6.630570066562E+01 1.212002224792E+01 7.512894780673E+01 2.006152467893E+01 1.591153482183E+01 -1.001340789456E+02 -1.926296463181E-01 1.142603770298E+02 3.293591942201E+01 -9.977452972291E+00 2.169377484641E+03
 1.059496797579E+01 3.133551674355E+01 -5.235982736168E+01 5.229182908634E+00 -4.645048116404E+00 3.454597855787E+01 1.199135924092E+01 5.813123637659E+00 -4.063382340098E+01 4.411205088705E-01 7.009990509513E+00 -3.468237791350E+00 1.600749696820E+00 3.585382235324E+00 1.438478669924E+01 -2.822698742082E+01 -8.930977058760E+00 2.010290874009E+01 4.132959369838E+01 -1.266245309809E+01 3.115408502085E+01 -6.286685473095E+00 -2.051623342706E+00 -3.257175714989E+01 -6.978175339025E+00 2.870184965307E+01 -1.603911821119E+01 -8.525514872914E+00 1.700336848078E+00 5.896310830610E+00 -7.327793175395E+00 2.218492971904E+03
 8.165294607970E-01 -3.903122671810E+01 1.935252332372E+01 -4.053625979314E+00 5.017628631536E+01 -1.223152252902E+01 -2.424280385435E+01 -3.454729166061E+01 3.813834612416E+01 3.250468083509E+01 -4.734699677349E+01 9.095846329740E+00 -4.191996657954E+00 2.072140923707E+01 -5.935165983832E+00 -1.115364398489E+01 7.986021748802E+00 -2.801337984974E+01 -1.031579732554E+01 2.524241235049E+01 -4.899146832412E+01 -5.319444302164E+00 1.083590837975E+01 6.904862814259E+01 3.017781370281E+00 -3.020836462708E+00 -1.993259762068E+01 2.922112846464E+01 9.903787048205E+00 -1.017886565470E+01 -1.373206661146E+01 3.480967282268E+00 2.225743626172E+03
 2.193416606500E+01 3.936547706799E+01 2.608361161014E+01 1.065464332597E+01 -9.519147567411E+01 -1.446184897535E+01 3.356597271372E+01 6.017946160398E+01 -5.948667170808E+01 -4.740109286863E+01 8.328812238840E+01 -3.350782299179E+00 1.855711970377E+01 -4.724528930668E+01 1.291838886836E+01 5.467572174817E+01 -7.987672561924E+00 6.439243813848E+01 -1.712502108725E+01 -3.699780538337E+01 9.759066352751E+01 -3.945676326900E+00 1.468773706617E+01 -1.490922481643E+02 -7.439258584350E+00 -1.290473118811E+01 2.218915398183E+01 -6.741855077515E+01 -2.310566904635E+01 1.455022436488E+01 2.947096561774E+01 -7.939708301326E+00 2.306580567593E+01 2.193148120599E+03
 1.198575104885E+01 9.046824786640E+01 -3.087889805049E+02 2.998853069964E+00 4.127193387383E+01 1.006647805182E+02 4.331344692942E+01 2.068755601373E+01 -7.925264925772E+01 -2.339971693342E+01 1.755118441050E+01 -2.185146130680E+01 7.872682012644E+00 -4.217300786278E+01 1.071695051761E+02 -2.654880554057E+01 -4.536733097223E+00 2.810681553946E+01 3.892467008376E+01 -6.041399217994E+00 4.711608126948E+01 -1.962550153072E+00 -1.429900285759E+02 5.777095950394E+01 -2.202629775541E+01 2.005553038561E+02 -3.038032002089E+01 -5.885273918745E+01 -3.406800567295E+00 1.778144843593E+01 2.527615628077E+01 -3.370124483644E+01 1.058064444954E+01 -1.427105769753E+00 2.115157546236E+03
 -3.622572293784E+01 4.347446476150E+01 -7.291365546191E+01 -3.555819778259E+00 3.550298481434E+01 8.376587645372E+01 9.549166463938E-03 -2.890255908033E+01 -1.880602271814E+01 1.919554058746E+01 -3.850830477768E+01 -1.582443537800E+01 -2.845341974039E+01 6.596471279726E+01 -3.037780020983E+01 -1.230148596200E+02 -1.928974106278E+01 -3.493437609128E+01 1.212589897319E+02 -1.215422924976E+01 -3.495381553133E+01 1.357210471150E+01 -6.315256661525E+00 4.170539853300E+01 4.774306226101E+00 2.086272035403E+00 -5.581806062889E+00 7.063898866621E+01 2.557988188392E+01 5.492908303144E-01 -4.701740374861E+01 -1.753037167582E+01 -4.606499813498E+00 2.326006595087E+01 -3.279027304765E+01 2.187685516301E+03
 4.731867902015E+01 -7.693779787351E+00 9.995430089337E+01 1.271632130736E+01 -8.606535763986E+01 -6.091384362742E+01 1.525302202162E+01 4.846484115997E+01 -3.505966467552E+01 -2.692500318918E+01 6.792545677447E+01 1.379189073654E+01 2.995225446793E+01 -5.456086634617E+01 1.422986644805E+01 9.362294059695E+01 2.498777937321E+00 7.062510499921E+01 -6.433566594404E+01 -1.938015937015E+01 9.218736619021E+01 -1.962949172556E+01 5.298288557436E+01 -1.529147109741E+02 -8.917602651655E+00 -3.352334678680E+01 2.592976541048E+00 -7.620085320563E+01 -2.662583798633E+01 7.246500588561E+00 3.264684410954E+01 -6.728772049248E+00 1.420475327784E+01 -4.764386506866E+01 2.258827304777E+01 4.039122020339E+01 2.173965363462E+03
 7.902976639577E-01 -2.071561467304E+01 2.556068477659E+01 -2.186724864017E+00 -1.929617155867E-01 -2.796497655008E+01 -4.889828721807E+00 1.927721944857E+00 2.208852485214E+01 -3.883426766580E+00 2.429879818362E+00 3.589285465655E+00 4.090137169648E+00 -1.450189553685E+01 2.417781258176E+00 3.418029251754E+01 7.994219858207E+00 -4.434690935268E+00 -4.086893258381E+01 9.163030768260E+00 -9.957149610803E+00 1.003354708758E+00 -4.729373769292E+00 1.531792516283E+01 2.049450677242E+00 -6.054532854333E+00 7.808854955249E+00 -9.376320910069E+00 -5.113518053874E+00 -2.642831436808E+00 1.275086729598E+01 1.354505107127E+01 -9.355342427337E-01 9.487059427495E-01 1.780459854895E+01 1.661426042751E+01 -1.614540964402E+00 2.231594813605E+03
 2.238048808545E+01 5.327333631595E+00 3.453686560613E+01 6.598825967694E+00 -5.055017153041E+01 -2.707038177698E+01 1.367455168717E+01 3.213994971727E+01 -2.428443063751E+01 -2.216509791500E+01 4.436382147468E+01 4.015231489158E+00 1.601504080593E+01 -3.495780030841E+01 1.274752885877E+01 5.216320507323E+01 6.118547246404E-01 3.979351477500E+01 -3.422852034574E+01 -1.350419625285E+01 5.448467414552E+01 -7.711869120839E+00 1.526689229602E+01 -8.233329226912E+01 -5.210877747538E+00 -8.104595719713E+00 6.629954505086E+00 -4.676590711983E+01 -1.598672694009E+01 6.033767599034E+00 2.210280427461E+01 -2.499536872457E+00 1.050466896951E+01 -2.756751339832E+01 6.621552337369E+00 2.196449334396E+01 -3.403533713682E+01 -1.690495420864E+00 2.222430213125E+03
 -1.152799323588E+01 -9.727193662006E+00 -7.665581054777E+01 -6.893130637180E+00 6.282375998604E+01 1.879106484014E+01 -1.058919569069E+01 -2.749666447829E+01 2.667638137515E+01 1.763896152462E+01 -4.072939071759E+01 -2.509324650850E+00 -7.405987551467E+00 9.530678681335E+00 1.829889893528E+01 -2.054484500729E+01 7.322496984997E+00 -3.352757613611E+01 -1.322513153378E+00 2.363450435034E+01 -5.040907138483E+01 3.742383453271E+00 -4.717399871016E+01 1.074881802034E+02 6.078385287743E-01 5.123391568430E+01 -1.312931991607E+01 2.031446487261E+01 9.686813912226E+00 -5.122144629779E+00 -3.850141019922E+00 4.737831899093E+00 -1.052138782261E+01 2.745788869241E+01 -1.940189829680E+01 -1.248976842429E+01 3.299876673242E+01 -1.719129516931E+00 1.680972760331E+01 2.219340124783E+03
 2.864842113722E+01 -3.478390458332E+01 2.101887813790E+01 1.162733324378E+00 -9.304877630918E+00 -6.023431470321E+01 -4.865013663127E-01 1.789587269558E+01 1.934654713314E+01 -1.258854458242E+01 2.189219213785E+01 1.161145285129E+01 2.289904414394E+01 -5.668281054452E+01 3.839456157256E+01 9.811826570284E+01 1.860136856290E+01 2.194499591835E+01 -1.023080948110E+02 1.717163830415E+01 1.814402993788E+01 -1.074764547155E+01 -1.739440536630E+01 -3.536892093852E-01 -5.541012762547E+00 2.606925759948E+01 -1.444534020024E+00 -5.836255939050E+01 -1.927912227585E+01 -9.420267677259E-01 4.087571986235E+01 1.427125684658E+01 1.461082730559E+00 -1.199064241086E+01 1.449286397663E+01 4.002975013599E+01 -2.344985056926E+01 -1.371155207018E+01 -1.353532726497E+01 3.064108270442E+00 2.208308554502E+03
 -5.282400603028E+00 -2.106500733714E+01 5.181106986608E+01 -2.591083655742E+00 -1.118572634693E+01 -3.189252889518E+01 -5.495671680609E+00 3.902891081400E+00 2.503484114685E+01 -6.856751243696E+00 6.507787559583E+00 2.740687865695E+00 1.332110340028E+00 -9.012834617503E+00 -1.168404220542E+01 3.130560369893E+01 6.000543288995E+00 -6.983290811411E+00 -3.643856130991E+01 4.770575970017E+00 -1.129530731926E+01 4.379952059694E+00 6.811060114663E+00 2.592161328657E+00 4.986844721892E+00 -2.884217187125E+01 1.679608865321E+01 -2.180410616309E+00 -4.781430891011E+00 -2.870941271875E+00 9.720170081379E+00 1.733154597576E+01 4.006551876694E-01 -7.077711794500E-01 2.923853104047E+01 1.809662720939E+01 -2.387680387763E+00 -1.096035153558E+01 -2.250783411131E+00 7.918389766845E-01 -1.354113746093E+01 2.226430665550E+03
 2.145202609632E+01 -3.011203259153E+01 -7.067391244935E+00 1.179739959375E-01 2.847324690163E+01 -2.487639995331E+01 -1.045719622743E+01 -1.032091325626E+01 1.733461650481E+01 1.436446485399E+01 -1.627392021124E+01 1.045893962248E+01 1.091398817979E+01 -1.779002607478E+01 2.716609451404E+01 3.556370005168E+01 1.211863294360E+01 2.454705199437E+00 -4.685150305521E+01 2.161565340232E+01 -8.936482425150E+00 -1.239877471847E+01 -8.404793852479E+00 3.544097055762E+01 -4.448549227973E+00 3.125199645684E+01 -2.161140255052E+01 -1.867849339064E+01 -3.627108601708E+00 -4.376122999307E+00 1.163826806635E+01 2.346321031040E-01 -7.659113714017E+00 5.704618887959E+00 -2.519643689039E+00 1.121991034510E+01 -5.781314990619E+00 -2.249358832910E+00 -1.263635333709E+00 -4.027834009085E+00 -1.122666793155E+01 7.723040977266E-01 2.229579396302E+03
 1.205097869142E+01 -5.061192902042E+01 1.104287751328E+02 -2.930808941041E-01 -8.011209738346E+00 -5.938818326384E+01 -1.836841645760E+01 -5.405038033271E+00 3.686974314800E+01 9.741936677357E+00 -5.080446120166E+00 1.449421079823E+01 7.586078618372E+00 -6.980895659430E+00 -1.692100510902E+01 4.787107278816E+01 1.044138666262E+01 -1.423714769820E+00 -5.644377666509E+01 1.359716167184E+01 -1.241835138566E+01 -7.126826314459E+00 4.330943370853E+01 -1.104287854958E+01 4.370426325773E+00 -5.157444103250E+01 1.855665425743E+00 -2.797613396273E+00 -5.437829512766E+00 -7.760530398674E+00 6.174513119700E+00 1.460070453945E+01 -5.732980086613E+00 -1.539345815036E+00 4.593253593126E+01 2.585300900979E+01 -1.737133668459E+01 -1.007245272727E+01 -6.882823447026E+00 6.797618142731E+00 -1.740709278499E+01 -1.281653838136E+01 -6.174492870984E+00 2.218361915155E+03
 6.396253043266E+01 2.611425332276E+01 -7.138496900324E+00 1.598637735006E+01 -1.033396369256E+02 -5.179051268896E+01 4.302683068772E+01 8.381846189379E+01 -7.082361198386E+01 -6.038407172897E+01 1.113381730648E+02 6.704440937346E+00 4.627684857557E+01 -1.104681951474E+02 7.417516539185E+01 1.431310474450E+02 6.765399048147E+00 1.049163564419E+02 -1.010725623949E+02 -2.552298289380E+01 1.418661407780E+02 -2.181796849285E+01 -1.437374863479E+01 -1.664159791587E+02 -2.025991606711E+01 5.101683035058E+01 4.631613636522E+00 -1.424546581768E+02 -4.337962828224E+01 1.832579504348E+01 7.117348672292E+01 -1.074460880968E+01 2.694847351162E+01 -6.604036597133E+01 -1.757933771069E+01 5.332881322487E+01 -7.757345289300E+01 -3.251444221345E+00 -4.390264532246E+01 3.278023775914E+01 -3.735135432353E+01 -9.524651971744E-01 -7.737367470691E+00 -7.891797343732E+00 2.124395841657E+03
 1.712422856825E+01 -1.676366576461E+02 1.583675194027E+02 -1.446333016178E+01 9.582325720669E+01 -1.455442428079E+02 -6.998786807075E+01 -6.088666555096E+01 1.607104265518E+02 5.413991204930E+01 -8.411923506697E+01 3.754943992657E+01 1.326053637273E+01 -2.033328319923E+01 1.135443997324E+00 1.241047766996E+02 4.902822807844E+01 -6.347163642042E+01 -1.915959191808E+02 8.811731124681E+01 -1.272282134063E+02 -1.372088865733E+01 1.742616475634E+01 1.809871875803E+02 1.172233054586E+01 -3.332713610482E+01 -1.757450045407E+01 1.288829303432E+01 -2.677072447526E+00 -3.128817266268E+01 2.416337684371E+01 5.598835315630E+01 -3.494329170794E+01 4.535443661776E+01 9.364003277727E+01 6.046127509086E+01 1.094641639220E+01 -3.668179102231E+01 9.788647191371E+00 -2.307722091120E+01 -5.307289734661E+01 -3.980554844679E+01 -2.772123638272E+01 -5.419701918083E+01 3.092387136096E+01 2.027771709845E+03
 -2.427942486309E+01 6.912459516952E+01 -3.122978240736E+01 3.922778585162E+00 -3.653707930300E+01 7.188124075191E+01 2.112908855784E+01 1.145763794955E+01 -5.824446834680E+01 -1.218830100766E+01 1.866129867451E+01 -1.779574569251E+01 -1.806779683324E+01 4.125746419018E+01 -3.401751000092E+01 -9.202147967818E+01 -2.693206503443E+01 7.537105898730E+00 1.172829617573E+02 -4.076705276373E+01 3.076432469756E+01 1.200638335022E+01 1.810226258462E+01 -7.238755420496E+01 1.718609569059E+00 -2.661949400043E+01 1.331934906985E+01 3.264975631976E+01 1.107652812231E+01 9.916865295081E+00 -3.217580483301E+01 -2.230888430563E+01 1.127269129356E+01 -1.028946108479E+01 -2.537909328091E+01 -3.809209109588E+01 6.255855432738E+00 1.746307184831E+01 2.744272206053E+00 8.940514938377E+00 3.385284778987E+01 1.681184335440E+01 1.690475372993E+01 2.299157331313E+01 1.057628084213E+01 9.231808915616E+01 2.193355714093E+03
 3.551315163903E+01 -2.550805687280E+01 7.994381082826E+01 5.549141009546E+00 -7.688777249468E+01 -9.124740458143E+01 1.546958239372E+01 5.674042339187E+01 2.020597178900E+00 -4.637120829497E+01 7.693686781363E+01 1.098684952896E+01 3.356573528168E+01 -8.848363423735E+01 3.300420769905E+01 1.500445217192E+02 1.710683530207E+01 5.409170907947E+01 -1.349709067610E+02 -3.090597015526E+00 6.739592958603E+01 -8.762222533108E+00 -4.856260521197E-01 -9.066853142181E+01 -5.412547843734E+00 -8.880728085987E+00 2.643182149764E+01 -9.678872024475E+01 -3.593231509261E+01 5.686044300111E+00 6.363345031013E+01 2.268249781020E+01 1.586343082132E+01 -4.108017257312E+01 3.729581087153E+01 6.628639360670E+01 -5.320866173114E+01 -2.113708042824E+01 -3.136420847710E+01 2.059069209778E+01 -4.862054744491E+01 -2.489513504860E+01 -6.082711718964E+00 -2.777365208000E+01 -7.587043694413E+01 -5.412505216260E+01 3.877593884879E+01 2.150074030986E+03
 -8.248841419037E+01 1.861637042113E+02 -1.651471143847E+02 3.676100545118E+00 -4.568906814384E+01 2.185788186869E+02 5.144590296857E+01 9.659514747511E+00 -1.356940633659E+02 -2.279694210834E+01 1.803287890835E+01 -5.375494499460E+01 -5.766223798768E+01 1.200392451434E+02 -7.678927720140E+01 -2.725779164204E+02 -6.786561667538E+01 -1.184239373187E+01 3.226321013715E+02 -9.267852880542E+01 3.805276927070E+01 4.013982877632E+01 -2.035674692064E+00 -9.691275869921E+01 5.426848505457E+00 -2.343238307822E+01 2.981768175897E+01 1.083600613212E+02 3.903303999459E+01 2.350286098239E+01 -8.987693865431E+01 -5.447587947710E+01 2.306248757146E+01 -3.261826565346E+00 -8.889795179811E+01 -1.160077314715E+02 5.144884077672E+01 4.494185259044E+01 2.379431390230E+01 3.096229843183E+00 9.556121223849E+01 4.465357225157E+01 4.415479324528E+01 7.051121796935E+01 6.065664349835E+01 2.319841651270E+02 -1.223236176408E+02 1.231389768593E+02 1.906511532630E+03
 -2.010906525845E+01 1.136009552561E+02 -6.943430338212E+01 9.597185181166E+00 -7.851134984833E+01 9.708344629219E+01 4.569403032419E+01 4.134238117416E+01 -1.066198459102E+02 -3.760646114704E+01 5.917030204437E+01 -2.637816424736E+01 -1.399742624978E+01 2.655658320767E+01 -2.293637780106E+01 -9.602472335157E+01 -3.734969819444E+01 3.893630546977E+01 1.442935292469E+02 -6.658539319114E+01 8.384270466622E+01 1.332640091349E+01 9.345799841134E+00 -1.420284839389E+02 -3.837011256054E+00 -1.166306703989E+01 2.145661859721E+01 5.774514915368E+00 4.074220457192E+00 2.049113867296E+01 -2.471312662326E+01 -3.530372695066E+01 2.478803424576E+01 -3.221320788222E+01 -4.882058659379E+01 -4.233472120248E+01 -8.032355130354E+00 2.438144155565E+01 -6.749356999698E+00 1.936360199525E+01 3.921620447172E+01 2.429180620760E+01 2.281951396458E+01 3.407653966675E+01 -1.565549454157E+01 1.453109700387E+02 -6.660971918411E+01 3.642185478006E+01 -1.648829419809E+02 2.138902940814E+03
 5.405570159332E+00 -1.800817267603E-01 3.772336951344E+01 2.210604087999E+00 -3.438942052487E+01 -2.159619082333E+01 6.617948343113E+00 1.948943368473E+01 -5.400486950883E+00 -1.637460474533E+01 2.759719513443E+01 1.181099354617E+00 6.688656539633E+00 -1.825196498342E+01 -2.464054133129E+00 3.240667991665E+01 6.836596826442E-01 1.668443014514E+01 -2.350909246076E+01 -8.501469099768E+00 2.428680818957E+01 7.125516119344E-02 1.095252611397E+01 -4.566054195990E+01 1.849113909899E-02 -1.993000605985E+01 1.364663131411E+01 -2.125706407444E+01 -9.265091432796E+00 2.720741149129E+00 1.306021792985E+01 5.586473632764E+00 6.743903669892E+00 -1.497280061089E+01 1.486727057300E+01 1.613593529809E+01 -1.680548824021E+01 -4.800599938535E+00 -9.811067566095E+00 9.268428705015E+00 -1.023864525757E+01 -6.914166709390E+00 1.620422648929E+00 -7.332016503778E+00 -2.103460505390E+01 -6.041046810068E+00 5.150026896596E+00 -2.443338537771E+01 2.186731109751E+01 2.250111508993E+00 2.233021180758E+03
 4.451887566463E+01 -7.704881180072E+01 5.895711987110E+00 -2.384382157280E+00 2.830332280027E+01 -9.977741241003E+01 -1.293629354000E+01 8.086208080280E+00 5.737366580821E+01 -4.112130752651E+00 5.108164300021E+00 2.164087015503E+01 3.499046107551E+01 -8.806012314127E+01 7.389151115759E+01 1.580520121334E+02 3.812865249901E+01 1.405358839989E+01 -1.820125042160E+02 4.848758007234E+01 -6.659416466015E+00 -1.846589504785E+01 -4.924654244029E+01 7.057409644861E+01 -8.067750090779E+00 6.852057785151E+01 -1.427781708124E+01 -8.375199202418E+01 -2.615238901590E+01 -7.143862980617E+00 6.548095525169E+01 2.826377698080E+01 -6.833163963965E+00 -1.032599778656E+00 1.944895400699E+01 6.257277031413E+01 -2.124389976606E+01 -2.492587472551E+01 -1.252795768179E+01 -7.887976763503E+00 -5.503817553509E+01 -2.309329468337E+01 -2.359068933608E+01 -2.876701741174E+01 -4.160413382904E+01 -1.137597965449E+02 6.659158740854E+01 -7.040685867978E+01 1.746417372724E+02 8.493349358920E+01 -1.146188818622E+01 2.139321382715E+03
 6.158528593032E+00 -3.517810691349E+01 -1.074132855335E+02 -7.404314450022E+00 1.109695844235E+02 1.445008367944E+01 -2.426660626843E+01 -5.068344370304E+01 4.188480006317E+01 4.394409601410E+01 -7.524411321440E+01 6.783018531792E+00 -1.945038731819E+00 8.651897779316E+00 4.345492861643E+01 -1.627202860010E+01 1.641511485425E+01 -4.018290202059E+01 -2.002049315610E+01 4.707726246548E+01 -7.138599152051E+01 -8.851933833129E+00 -5.656546083292E+01 1.638228566615E+02 -4.580241979898E+00 9.173006823443E+01 -4.579022782952E+01 1.949070456745E+01 1.370611510681E+01 -1.076491308604E+01 -5.302428715236E+00 -2.503522992993E+00 -2.227136018890E+01 4.183594680709E+01 -3.438493978669E+01 -1.608202446789E+01 3.781568166001E+01 1.784949717701E+00 2.185938716280E+01 -3.034999062722E+01 2.803326189062E+00 8.756010701492E+00 -1.600500334761E+01 7.405759890443E+00 3.933800142591E+01 -3.656765906098E+01 1.701873736890E+01 3.576241853596E+01 2.099494412647E+01 3.368901561155E+01 1.698154621682E+01 -1.616155581478E+01 2.184918011674E+03
 -1.535187060068E+01 -3.328538112563E+01 7.427579666337E+00 -7.158553751392E+00 6.319637438593E+01 4.752623148927E+00 -2.708805388606E+01 -4.476098940569E+01 4.478415074740E+01 3.689233242453E+01 -6.076587418797E+01 4.235510849643E+00 -1.406912927791E+01 3.957105170637E+01 -1.898236825169E+01 -4.107050159503E+01 4.733390667427E+00 -4.616194402978E+01 1.475679717267E+01 2.525336508824E+01 -7.034750506752E+01 1.925755155043E+00 5.448684962118E+00 9.499069489765E+01 6.955994032996E+00 -8.891302022514E+00 -1.500870448581E+01 5.358233817126E+01 1.723666507349E+01 -1.152799244233E+01 -2.528231812860E+01 5.776583417031E+00 -1.719469968657E+01 3.317922629258E+01 9.779906508096E+00 -1.595541156149E+01 3.037996221284E+01 -3.878789989747E-01 1.863385341517E+01 -1.660759303936E+01 9.307337413554E+00 1.855271368636E-01 -3.608793387761E+00 -1.626308836160E+00 4.770792937692E+01 -3.370366452992E+01 6.563082809136E+00 2.916330086060E+01 2.938582100770E+00 2.267287428297E+01 1.001622177931E+01 3.414182931856E+00 -2.677492642414E+01 2.217028693463E+03