#BIOSYM hessian 1
@Type: Hessian Update
@Units
 distance: 	A
 energy: 	Kcal/Mol
#header
@natom 19

#label
L1      L2      L3      L4      L5      L6      L7      L8      L9      L10     L11     L12     L13     L14     L15     L16     L17     L18     L19

#element
Li Li Li Li Li Li Li Li Li Li Li Li Li Li Li Li Li Li Li

#matrix
57
 1.965640320854E+02
 4.741179274065E+00 2.298436671153E+02
 -1.259571880667E+00 -6.666728846935E+00 2.251806029662E+02
 -4.792959098306E-01 -6.076964942508E-01 3.166339422992E-01 1.954034374377E+02
 4.731903385072E-01 4.672782030731E-01 -9.722175975681E-01 -3.393515178247E-01 2.056464805597E+02
 -4.709214814375E-01 -2.931178323067E+00 -2.636439699223E+01 3.267695060623E+00 2.090431279483E+00 2.258005376780E+02
 -1.106434365778E+01 -1.565347667223E+01 -9.722130066352E+00 -2.153603163959E+01 1.968213217800E+01 1.488543924937E+01 1.093180961322E+04
 1.456283471010E+01 -1.509618079358E+00 1.136986523615E+01 -1.392687507695E+00 2.003163143477E+00 -5.312070207754E+00 -8.461343629359E+02 5.890925534327E+03
 6.609030929988E-01 2.207367131306E-01 -1.098816853549E+01 -5.018158241416E-01 1.186396399689E+00 -3.015769537937E+01 1.207868937553E+02 -8.442812158654E+01 7.446749101109E+02
 5.913793823105E+00 -7.133154868312E+00 -4.212009306369E+00 -1.514632048794E-01 -1.142486230530E-01 1.257979756398E+00 -4.185146888731E+01 -1.840208828747E+01 5.454650347770E+00 1.348825153947E+03
 -1.458723956188E+01 -7.892890157512E+01 -6.990259110193E+01 -2.797855436019E+00 3.114749305765E+00 1.621110147898E+01 4.140291594695E+01 -8.884835550657E+01 4.839796368169E+01 -7.067779878957E+01 8.351482020464E+02
 3.113444933885E+01 -5.024348011936E+01 -1.600918504614E+01 1.024151912120E+01 -7.789582938097E+00 7.463026790947E+01 -5.783167949863E+01 9.726921467115E+01 -4.195757706869E+01 5.192232035308E+01 -8.524830170711E+02 3.550668936613E+03
 -4.095414823107E+01 3.649103624727E+01 5.551088457864E+01 -3.338287281957E+00 2.491700289134E+00 -2.280823948862E+01 -7.896809865976E+01 4.645721270428E+01 -2.783755668116E+01 -7.805427183111E+02 -3.040568705158E+02 -7.727239915145E+01 1.200275830274E+03
 2.142329937974E+01 -2.114522026387E+01 5.933814405342E+00 7.752148515923E+00 -1.049845522487E+01 -5.695288187474E+01 5.214680923310E+01 -2.410670982382E+01 2.099302037404E+01 -3.168965909177E+02 -2.114685956833E+02 1.610458384387E+02 1.537977714424E+02 1.979647078747E+03
 4.320747542339E+01 -1.638867152196E+01 -1.236311330951E+01 -9.648413787737E+00 1.176708168288E+01 3.393209566907E+01 -1.013117699282E+02 5.137906700195E+01 -2.511475899342E+01 5.011904790607E+01 6.759597289541E+01 -1.309236388900E+02 4.593194834686E+02 -1.122290468818E+03 1.650707579021E+03
 -4.965091466297E+01 -2.201081720047E+01 5.040081570606E+01 -6.148928370190E+00 5.213067071902E+00 -9.996669634365E+00 -8.346169686168E+01 -4.254360627064E+01 -3.414449179957E+01 1.106096897904E+01 3.881597314593E+01 -1.411039503078E+02 -2.715481584750E+01 -3.668057775819E+01 -6.870955592566E+01 1.061927116177E+03
 -2.425518381366E+01 -1.093831341274E+01 -2.138292364437E+01 -5.936286119240E+00 1.052272114222E+01 5.605491540068E+01 -3.243792130846E+01 -2.870723328975E+01 4.220083207575E+00 9.471334537976E+00 1.009060456027E+02 -1.780507224364E+02 -1.830861657987E+02 -8.599153194660E+02 -7.791883482274E+01 1.671092153412E+02 2.021413555997E+03
 4.275503021996E+01 2.568141471670E+01 -1.304977367549E+01 -8.913995791484E+00 1.274717135427E+01 2.222659007982E+01 -9.234959462388E+01 -3.810099652161E+01 -1.556270736158E+01 1.001805999215E+01 5.273560643977E+01 -1.258238038478E+02 -2.330733965163E+01 7.220734697230E+01 -5.708910940380E+01 5.924154959641E+02 9.080310951683E+02 1.288590975340E+03
 2.303831590286E+00 -4.196703507089E+00 7.363040418324E+00 3.076173949694E+00 -2.599210685177E+00 -5.700713227811E+00 -3.679860760564E+01 -4.709670808870E+00 -1.251677974253E+00 -2.096628089798E+00 -1.152355285492E+01 1.742142432619E+01 -7.819567146038E-01 -4.281656691842E+00 6.345765085898E+00 -5.985008168246E+02 3.651457430491E+02 5.122476200270E+01 1.571722424577E+03
 -8.169585512116E+00 -7.993878356007E+01 5.762250807102E+01 -7.471507399431E-01 2.264494146370E+00 -1.044451688744E+01 -3.011571004120E+01 -1.024554868922E+02 -6.262120580416E+01 -2.927688915673E-01 3.269253067061E+01 -1.132116841868E+02 -1.602814487696E+01 6.664522462314E+01 -6.304355830332E+01 3.504975987663E+02 -2.463519314552E+02 -2.264285495854E+00 -9.043986828246E+01 5.869392969253E+02
 -3.325246161745E+01 4.076828346803E+01 -2.476550776754E+01 -1.007593328584E+01 2.830475504488E+01 5.994121789528E+01 9.482743919883E+00 -6.342798289487E+01 -8.364433255857E+01 9.079097964498E-02 1.615893236059E+02 -2.721709975171E+02 -1.271971140237E+02 1.659927346225E+02 -1.339621296598E+02 -1.113742254217E+02 -2.089301215624E+02 -1.298834023726E+02 -2.220661545865E+02 4.560148450491E+02 3.732059492364E+03
 -3.836469383661E+01 2.691489675670E+01 -5.174650514811E+01 -4.995479585615E+00 3.527293676142E+00 2.156450895114E+01 -2.953410877648E+01 4.533458096250E+01 2.900269402393E+01 -1.602547651196E+00 -2.000115242024E+01 1.070545750775E+02 9.107992686119E+00 -7.197589401958E+01 4.260476272484E+01 4.457084044571E+01 9.287630703428E+01 2.243023250291E+01 -8.971397606160E+02 -2.756371750975E+02 2.033224546968E+01 1.241072203066E+03
 3.117455005067E+01 -2.986264745111E+01 3.773923785763E-01 3.636776070507E+00 -1.153533977560E+00 3.597529708132E+01 5.032197001037E+00 -2.251686337497E+01 -1.005392414491E+01 -7.170713149891E-01 8.109684425830E+01 -1.263634829660E+02 -5.287278434725E+01 8.752340874156E+01 -6.940193077754E+01 -8.064077932535E+01 -5.284263086065E+01 -4.607589754966E+01 -2.612175002813E+02 -1.186169385435E+02 -1.832241524564E+02 1.425486123323E+02 1.790548173399E+03
 -3.296238366394E+01 2.044507957427E+01 -6.436749885664E+00 5.807439176625E+00 -2.894217961137E+00 6.158114749833E+00 5.692048625781E+01 -4.186366002726E+01 -1.658698593448E+01 2.018100537211E+00 3.267285871245E+01 -7.705352153586E+01 -1.260417187822E+01 5.336515640974E+01 -3.716716238294E+01 -1.137670982560E+01 -4.987457224949E+01 -2.455719069628E+01 -7.685659289783E+01 -1.899832264943E+01 -7.266914638710E+01 -3.299226645060E+02 7.882835162656E+02 1.069521736493E+03
 -5.347611039589E+01 -2.293645305978E+01 -4.674139935105E+01 -5.169533147155E+00 3.737932435844E+00 3.021166967741E+00 -8.647325174409E+00 -4.809129832265E+01 2.801469758751E+01 -5.333434734793E+02 3.440554023986E+02 1.347830932274E+02 4.752620920307E+01 -1.066388584093E+02 7.479789129307E+01 4.032812489365E+01 9.412319989394E+01 4.993493047035E+01 -4.147952090652E+00 2.999723916128E+01 1.604998779312E+02 -2.984019178317E+01 -4.580893497524E+01 3.758712415510E+01 1.011178609004E+03
 -1.865359845165E+01 2.063682791589E+00 4.402806594010E+01 -3.470806801811E+00 6.475116632709E-01 -8.339062041339E+01 1.646231510805E+01 -4.545994776293E+01 4.984006169227E+00 3.896171358171E+02 -3.850258298821E+02 1.663450667731E+02 1.110180935784E+02 -8.884206049635E+01 9.372605539825E+01 1.076343413425E+02 8.440553948864E+01 7.764638535229E+01 7.485221491103E+00 6.573680507843E+01 1.988152303003E+02 -1.938822721614E+02 -8.863197673692E+02 8.753194978238E+01 1.134514542646E+02 2.023894739089E+03
 -4.327777350910E+01 -2.740254618874E+01 -3.366765658996E+01 8.052729958224E+00 -4.863300140248E+00 5.598683545143E+01 5.956303232128E+01 6.580177948269E+01 -2.111961139237E+01 -2.694960519045E+01 8.101817234309E+01 -1.579761228542E+02 -8.497993501989E+01 9.243785562518E+01 -8.658110442316E+01 -8.448422812590E+01 -9.711057974862E+01 -8.050206430622E+01 -1.781279639260E+01 -7.078940298297E+01 -1.784304372616E+02 5.921714698072E+01 -6.179100091868E+01 -5.650010781003E+01 -6.532184357281E+02 -9.875760857461E+02 1.580762445892E+03
 -9.579218863691E+00 1.595204774731E+00 6.156583649885E+01 4.803972525482E+00 1.300137578747E+01 -4.026852841853E+01 -2.672815075830E+01 3.197720875758E+01 -2.486578131393E+01 -1.183644876131E+00 -7.602999826030E+01 7.665261215681E+01 4.692506294675E+01 -5.909130090439E+01 5.153210705797E+01 5.681576650699E+01 4.500284444052E+01 2.553057705637E+01 1.230943760970E+01 2.008610249904E+01 1.478130405954E+02 -7.256114349378E+01 4.156058103180E+01 4.188138281135E+01 -8.215787365684E+01 -5.090735324902E+01 8.996133882591E+01 2.036063795436E+03
 2.300250471286E+00 2.778137980020E+00 8.670504598576E+00 8.370307572935E+00 -6.604077336937E+01 -4.885371729666E+01 6.859643459887E+00 -1.300043227816E+02 1.101670774064E+02 2.280439462232E+00 3.983661118574E+01 -1.260939425187E+02 -1.874044507644E+01 8.317574370824E+01 -5.972052964218E+01 -4.921693056899E+01 -7.638593470103E+01 -5.084553226775E+01 1.261198924294E+01 -1.689330231530E+01 -1.807558958023E+01 8.601423284822E+00 -6.253914055105E+01 -1.081175440470E+01 5.306849892418E+01 1.153744397163E+02 -8.442581212239E+01 1.723411867174E+00 6.922633293245E+02
 -1.829881422213E+01 1.360944686049E+00 5.157854791142E+01 9.910564521783E+00 -2.595396097698E+01 -4.318647981321E+01 3.522443470755E+01 7.003534649252E+01 -8.882591669977E+01 -5.125919327973E-01 -1.086708511664E+02 1.486735552254E+02 6.756846505879E+01 -1.273115227162E+02 9.769904492503E+01 1.023397328724E+02 8.451652233861E+01 5.963941391734E+01 -6.821973291009E-01 1.848499167010E+01 1.017624438211E+02 -5.595946636194E+01 8.348978305825E+01 3.676927400019E+01 -1.178798285680E+02 -1.174575420880E+02 1.199251129317E+02 1.108428765490E+03 -4.697441378759E+02 2.693210206117E+03
 -6.233116258493E+00 -8.733939466973E+00 3.013830422751E+00 -4.979266163462E+01 2.007882963218E+01 5.583916204089E+01 -8.890838407268E+01 5.320676598634E+01 -1.087544502609E+02 -1.157567264682E+01 -5.010872814733E+01 1.278862034135E+02 2.058570428568E+01 -8.555911836583E+01 5.804731309435E+01 3.019439328489E+01 7.436746141695E+01 4.594989910451E+01 -1.086437342408E+01 5.183667262284E+01 1.606086242114E+02 -4.174615681278E+01 8.608453533723E+01 3.043698559204E+01 -6.543163558821E+01 -9.582281619463E+01 8.931239874855E+01 -6.407363247587E+02 -3.942527619333E+02 -5.976371308906E+01 1.093354068171E+03
 4.828320253875E+00 5.561956110878E+00 -4.026300491270E+01 1.721910682409E+01 -6.594478551603E+00 3.789298466715E+00 3.682902132542E+01 -1.248005926983E+01 3.839128931828E+01 5.677795650580E+00 7.610471779667E+01 -9.468065008160E+01 -4.534223079486E+01 6.647514339213E+01 -5.417342391476E+01 -5.023071956120E+01 -5.911983805075E+01 -4.295743815358E+01 1.033119310175E-01 -4.138178469548E+01 -1.032925701626E+02 6.323175516546E+01 -4.955511638409E+01 -3.282663819981E+01 4.952829629843E+01 -6.021923693508E+00 -1.876548805580E+01 -3.702352072858E+02 -3.481424389064E+02 1.366327359031E+02 -4.818682007301E+01 1.643742949376E+03
 -1.094201413199E+01 -1.677931696327E+01 5.681919608960E+01 4.913829475208E+01 -2.238595374438E+01 -1.120657633418E+01 -5.962541591023E+00 1.257827314376E+01 -7.234286736177E+01 -4.052276733034E+01 -8.196295965359E+01 1.437080981767E+02 4.640734581583E+01 -9.478216723145E+01 7.743884839542E+01 6.408334469831E+01 8.344457831402E+01 7.516864729369E+01 -2.786000190501E+01 6.448181459710E+01 1.159185334489E+02 -5.984735000301E+01 6.794261952245E+01 -4.361493402827E+01 -8.375916874064E+01 -5.678308057646E+01 7.258750649463E+01 2.891122725017E+01 5.874789568499E+01 -8.151986660982E+01 8.253954173466E+02 -8.233643728191E+02 2.172374518048E+03
 -1.528747428173E+00 -5.120481843092E+00 -1.236071046963E+00 -3.814663707321E+01 -3.207960291333E+01 3.792649091273E+01 -7.163421846587E+01 -4.246281545150E+01 -9.495417863531E+01 -1.987672250097E+01 -1.807582125351E+01 1.044685301705E+02 3.841679621511E+01 -9.939130640698E+01 6.784587484917E+01 2.619099854648E+01 6.622781836927E+01 3.130932381215E+01 -2.011379127067E+01 2.974315602443E+01 1.384693167500E+02 -2.772316236562E+01 1.127575392027E+02 6.548907792902E+01 -5.097467459969E+01 -1.185093873248E+02 8.489918156684E+01 -5.387214209377E+01 4.031718727721E+01 -1.115933805684E+02 -2.575454410840E+01 1.318578696398E+02 -4.876834590963E+01 1.573225857477E+03
 -2.846944647917E+00 -3.102308058021E+00 -6.355713099299E+00 -2.811930593780E+01 -2.025018732924E+01 2.918919059068E+01 -1.836466531480E+01 -3.523823977592E+01 -4.477901229520E+01 8.751342883820E+00 -3.788617970841E+01 8.712694449828E+01 1.519950867178E+01 -6.033237229418E+01 3.755811045242E+01 3.098996411243E+01 6.620700926574E+01 3.441436510245E+01 6.582113454666E+00 2.422363369514E+01 8.060089206339E+01 -4.880645678894E+01 1.357137650940E+01 3.770237823107E+00 -4.990651863126E+01 -7.318411695041E+01 7.861488563717E+01 -5.001375323618E+01 2.847429526033E+01 -7.330182463826E+01 6.318298223129E+01 -9.582284433985E+02 -4.372607981692E+01 -3.874612189353E+02 1.480437750461E+03
 3.156268849151E-01 -4.771042177009E+00 -1.430312474932E+01 3.609038891191E+01 1.945824064530E+01 8.929435266164E+00 -8.366966168019E-01 -3.110051998402E+01 -5.188521179452E+01 -8.751541579306E+00 -1.523245484451E+00 8.471426149096E+01 6.595180643375E+00 -5.973276580743E+01 3.712973466916E+01 1.277436929383E+01 5.897054353058E+01 3.414678512676E+01 -4.407769136533E+00 1.553662501020E+01 9.774969791900E+01 -2.583066950804E+01 3.677069310774E+01 1.908055177581E+00 -2.053994663622E+01 -6.802767088718E+01 1.435559715284E+00 -4.004594781574E+01 1.681920791916E+01 -5.987670088169E+01 -1.708952645252E+01 2.562265228049E+01 -5.303548325129E+01 5.968925333289E+02 2.006971762194E+02 8.871124787590E+02
 -6.920384148719E+00 -7.787761679354E-01 -5.686175795701E+01 -1.197756335249E+00 1.042070900739E+01 3.011252544846E+01 -3.655636907523E+01 2.991524646816E+01 1.706558705707E+01 1.837490116095E+01 6.065463587702E+01 -1.152294251140E+02 -6.635521962977E+01 4.874255486288E+01 -5.393472637005E+01 -7.089205877700E+01 -5.750654269486E+01 -7.799468997893E+01 -2.541965309529E-01 -5.054666234089E+01 -8.699064477443E+01 3.886088655326E+01 -4.448563416153E+01 -3.093998513119E+01 6.247871970435E+01 4.159608258145E+01 -3.366659076903E+01 1.029812759615E+01 -5.540618474118E+01 5.800025306861E+01 5.428639899483E+01 -4.327067970467E+01 6.475232157643E+01 -7.787513746735E+02 3.031827024722E+02 1.219191931926E+02 1.848197398670E+03
 1.634374103044E+00 -3.052248530776E+00 -1.095000036316E+01 6.481778726295E+00 -7.164963121637E+01 5.892367745298E+01 3.456918349757E+01 -1.246852183140E+02 -1.055772270350E+02 8.161861147399E+00 -3.026418568884E+01 9.589217611515E+01 1.622586841768E+00 -7.313307329082E+01 3.167458241401E+01 3.588132992404E+01 9.858510758680E+01 4.826461593708E+01 -5.070390180169E+00 2.518479674577E+01 1.147365750560E+02 -9.959506362578E+00 6.269760964363E+01 2.620991168454E+01 -5.132783949703E+01 -1.004127074426E+02 8.703478611858E+01 -5.932111295049E+01 2.812440796965E+01 -8.648924234481E+01 -2.977558796831E+01 4.466910274923E+01 -6.276248766200E+01 2.449484756346E+02 -1.119057569493E+02 -2.516486035061E+01 7.742276759423E+00 6.590765136283E+02
 1.976306714530E+01 -1.557548035052E+00 6.656089126585E+01 -5.136597102222E-01 3.858112888985E+01 -3.106423869804E+01 4.429979863342E+00 -8.094118776180E+01 -1.035481519639E+02 -8.110269855410E+00 -9.390421957721E+01 1.305600219363E+02 6.274875628442E+01 -1.089840008394E+02 9.213438941081E+01 1.070255798674E+02 1.235795180855E+02 9.877937738728E+01 7.617917846658E-01 9.300353840531E+01 1.877983166767E+02 -6.950781686126E+01 1.091082679791E+02 6.356682917471E+01 -1.359093656162E+02 -1.294879082386E+02 1.082946274714E+02 -7.461053330483E+01 1.011272062203E+02 -1.484469599918E+02 -1.155395022424E+02 1.075403757388E+02 -1.204622788227E+02 -4.518299774971E+01 -9.131294296146E+01 -8.335740477650E+01 -1.000333771914E+03 5.306736195260E+02 2.972499749380E+03
 -5.204395845458E+00 -1.198161208873E+00 -1.020883421496E+01 -4.595454545218E+01 1.564948642668E+01 -5.093319930141E+01 -1.519511866318E+02 6.685233271172E+01 1.168025453576E+02 -1.250010908886E+01 8.254626799426E+01 -1.615512555804E+02 -5.613137556999E+01 1.336164196196E+02 -8.898488837995E+01 -5.921474441936E+01 -6.294527713135E+01 -4.974415416551E+01 -2.131316017353E+00 -4.573838982645E+01 -1.284879997449E+02 2.363529381898E+01 -6.485171648572E+01 -2.536623924145E+01 4.861739771126E+01 9.645127011147E+01 -8.487287183413E+01 5.745010110011E+01 -4.178269683838E+01 1.083765380234E+02 5.095824174861E+01 -5.380760016074E+01 6.455332146485E+01 6.985521416312E+01 4.916992290914E+01 1.405344065901E+01 -6.215076138948E+02 -3.653390307511E+02 5.965766135159E+01 1.091987752413E+03
 3.445222000352E+00 4.289339446485E+00 4.414500234026E+01 2.374549721429E+01 -8.261560204261E+00 -6.444563709551E+00 5.325170638135E+01 -4.572729890825E+01 -4.114294152698E+01 -1.912208189811E+01 -8.701655434190E+01 1.453583711510E+02 9.343635357802E+01 -8.227934551489E+01 6.542002378573E+01 6.405610847142E+01 -1.816922520578E+01 1.813682305112E+01 2.826729221585E+00 7.317612289254E+01 1.018945328675E+02 -5.219425486797E+01 6.303899931242E+01 3.637279262239E+01 -6.796639854017E+01 -6.599626562396E+01 6.576915896685E+01 -5.399075256183E+01 5.971053108642E+01 -1.005843804170E+02 -6.572026897171E+01 5.156499282471E+01 -6.614796604325E+01 -7.523135700655E+01 -3.008654665974E+01 -4.659322387775E+01 -3.282662622246E+02 -3.047623109209E+02 -1.675292196129E+02 -6.207211053804E+01 1.492293125617E+03
 1.100565534374E+01 1.034975122915E+01 8.615296968780E+01 -4.596019927905E+01 3.635732142535E+01 -3.499802965548E+01 4.073399075807E+01 -7.139214311852E+01 -6.599938022451E+01 3.002964317259E+01 -1.413783982886E+02 1.248703602117E+02 1.075604677841E+02 -1.272312154774E+02 -1.308671126838E+01 1.195166620729E+02 3.710431971975E+01 7.318178140853E+01 2.920696623195E+01 9.377878213655E+01 1.867573331795E+02 -7.229987882317E+01 9.583393170399E+01 5.993271551465E+01 -1.166449782373E+02 -1.035557698364E+02 1.244569237237E+02 -6.109738400747E+01 9.294407957095E+01 -1.206379280000E+02 -1.017770002100E+02 7.597877844218E+01 -1.146759615169E+02 -9.718212125755E+01 -5.433329652777E+01 -7.584459304933E+01 -5.096901624125E+01 -8.293628172320E+01 -1.273943807780E+02 -8.210576553186E+02 7.656604144216E+02 2.312134090327E+03
 4.487412827402E+00 7.652429177350E-01 -2.113297351303E+01 -4.144702892789E+01 -3.763482538486E+01 -1.985864595939E+01 -1.493979256886E+02 -4.010466554383E+01 1.023511954838E+02 -8.692811723928E+00 6.374319241125E+01 -1.467165259572E+02 -5.837534592602E+01 1.622778376569E+02 -1.439179061035E+02 -6.049701539126E+01 -9.497459754624E+01 -4.183009750397E+01 -1.191245738591E+01 -7.176430336820E+00 -1.045780586370E+02 5.673928996587E+01 -7.036167263259E+01 -3.848699740800E+01 5.853893152765E+01 8.929845059998E+01 -8.601734797985E+01 -8.089742840132E+02 2.378760090513E+02 8.131676679306E+01 8.545504616788E+01 -5.065548775022E+01 7.406194060047E+01 5.311553039668E+01 4.123623254243E+01 3.490041489174E+01 -4.943359226940E+01 4.676084478452E+01 1.360916218798E+02 -4.194007934584E+01 1.501823954278E+02 8.156363369627E+01 1.592458195395E+03
 -1.661991486568E+00 1.862874040270E+00 2.544357821456E+01 -3.582349110079E+01 -2.002023557125E+01 -4.531673561243E+01 -5.865769175562E+01 -3.305455286570E+01 4.590478872609E+01 1.049572223321E+01 4.234497237442E+00 -6.949420864260E+01 -1.936271951828E+01 1.724387222735E+01 -3.062704992952E+00 -1.710048316840E+01 -4.764200109291E+01 -4.580367590146E+01 -1.232177558018E+01 -2.088274375170E+01 2.684863166934E+01 4.125029056741E+00 -4.118508585383E+01 -3.807161475210E+00 1.977223380349E+01 7.803208605051E+01 -4.908266481515E+01 3.570993081401E+02 -1.192087859224E+02 6.552352432717E+01 2.192318528280E+01 -2.460884042580E+01 2.467572640117E+01 1.462084773031E+01 7.397042895817E+00 -7.607441601904E+00 -4.384944787775E+01 3.566214759974E+00 5.950836015407E+01 7.204486572641E+01 -8.849552480882E+02 9.347932785163E+01 -5.248532388436E+02 1.352695688893E+03
 -5.447596375028E+00 -1.166716390625E+00 -4.182730968777E+00 -4.330182111861E+01 -1.632147239802E+01 -9.709334840565E+00 5.060810455729E+01 2.082329281404E+01 -6.544366969586E+01 -7.206831476069E-01 -2.787973729216E+01 1.035485897705E+02 3.456771993090E+01 -6.638555512684E+01 3.959782257325E+01 2.917982856756E+01 5.145338738343E+01 -1.179630237754E+01 -7.442520220706E-01 -1.017273645112E+01 8.084760214969E+01 -1.202230273557E+01 4.135333277307E+01 1.537015736957E+01 -3.265643006880E+01 -8.339825444352E+01 7.789824501200E+01 -9.786248930960E+01 3.704272047831E+01 -7.808994648181E+01 -2.455927841133E+01 3.666902702461E+01 -5.123655603205E+01 -2.634955425625E+01 -1.634069482568E+01 -1.338506579503E+01 2.780389874454E+01 -2.321069380203E+01 -7.614653846983E+01 2.474631235425E+01 9.075264522691E+00 -7.986666153086E+01 -6.400842878481E+02 -3.401839286599E+01 9.065621695224E+02
 3.668590979730E+00 4.466798321356E+00 -1.013387809397E+02 8.721683877548E+00 6.068615405700E-01 7.831666312662E+01 -5.109884781218E+03 6.445620877386E+02 2.508687763548E+02 2.374732487476E+01 2.438819494595E+01 4.511129437657E+01 2.856990325277E+00 -2.696478678972E+01 2.429217857865E+01 2.536751331556E-01 6.036429696330E+01 1.595510384437E+01 -1.181050947569E+01 -1.518368322791E+01 4.620015992737E+01 -6.997952821193E+01 2.323373323447E+02 1.673205348713E+02 -3.240573878934E+02 -6.459476551386E+02 6.980607229802E+02 -5.048915712647E+01 -4.164636603206E+01 -2.505479231695E+01 -3.649182072267E+02 4.392808214739E+02 -8.892093120105E+02 -5.326122625035E+01 -8.595474538969E+01 -7.132563847751E+01 6.775730587905E+01 2.705293598960E+01 -5.733058032200E+01 5.795477665587E+01 -5.930512381782E+01 -1.644449053823E+01 6.247637729278E+01 -2.913217047085E+01 5.005513817098E+01 6.141290715844E+03
 -3.647296885962E+00 -8.432604927453E+00 1.998096460463E+01 4.918392722817E-01 -1.607480726736E+00 8.092730779084E+00 6.783864519881E+02 -4.308946170485E+01 -3.982339293369E+01 -4.109083617565E+01 -2.092095317252E+01 -4.806985102870E+01 -4.513064798903E+01 3.069658352870E+01 -3.410955950347E+01 -4.760166019000E+01 -4.933457187336E+01 -4.046832828924E+01 -3.286520887053E+00 -5.249062108085E+01 -7.162492273504E+01 2.817587118926E+02 -7.840901113778E+02 -8.747361320049E+02 -3.955474824161E+02 -7.018739158961E+02 9.778399946702E+02 3.791895647602E+01 -9.497229693225E+01 1.065282801585E+02 3.493884477221E+02 -3.474748408370E+02 8.654626935832E+02 -9.999453183008E+01 -2.768529428707E+02 -3.204288803290E+02 -3.994978526553E+01 1.138630175331E+01 5.488577446424E+01 -2.356638767258E+01 1.895459733810E+01 1.928859050021E+01 -9.199618112092E+00 -1.632385256989E+01 1.082817003459E+01 -6.537850997764E+02 3.005570153694E+03
 2.233128155216E+01 3.955437305812E+01 -5.166776753609E+01 -3.122503803164E+01 1.625115859222E+01 -1.149093587503E+02 5.325121662631E+02 -1.178983925485E+02 -2.934199859668E+01 3.847187156386E+01 1.089791888971E+01 -1.740009871359E+01 4.867329172457E+01 5.787342345053E+00 1.209223192272E+01 4.004777747282E+01 -1.967833212125E+00 2.459079448785E+00 -7.449774461221E+00 -3.800212536869E+01 -4.806160379320E+01 3.261578617656E+02 -8.481485215279E+02 -8.640781263527E+02 6.393919325148E+02 1.086143424236E+03 -1.517911576044E+03 -9.885969082385E+00 1.009341565294E+02 -9.340330469082E+01 -9.319281552082E+02 8.066362708330E+02 -2.110025535418E+03 -1.992980856064E+02 -3.448881427338E+02 -2.972349311591E+02 -1.473916762895E+01 -5.875642094668E+01 -2.133944899808E+01 5.364197930031E+00 1.657264921640E+01 -3.047879753360E+00 -2.710910009669E+01 3.900554766828E+01 -3.440556476336E+01 -4.490586721127E+02 -6.181004687024E+02 5.139974635092E+03
 -6.525633470760E-01 8.156252955423E-01 -1.704914799596E+01 -7.089745467400E+00 -2.371557082415E+00 9.208272649038E+00 -1.558629360558E+02 -4.890053615882E+02 1.735141525569E+01 3.470582133112E+00 4.582372135104E+01 -6.325436857016E+01 -2.822291920376E+01 7.933721676522E+01 -6.831059385077E+01 -1.429674690391E+02 1.802257853000E+01 -1.133675744724E+02 -1.035689647671E+01 -2.235906819953E+01 5.172340620633E+01 -1.436161349116E+02 -9.114804125381E+01 8.916604774184E+01 5.759790423205E+01 7.232198466670E+01 -4.564152074443E+01 -5.273651799169E+02 1.593450637442E+02 -1.162396091313E+03 1.074310803462E+01 -6.877631853379E+01 2.042730497357E+01 5.448298526068E+01 1.511267754201E+01 1.605310146330E+01 -2.470423309491E+01 3.885132746397E+01 4.601287455166E+01 -5.369633773916E+01 2.539555138724E+01 4.026473045135E+01 -7.104338808877E+02 2.370878002050E+02 6.615991611121E+02 -1.545848964491E+02 -2.284357635340E+02 4.421578854624E+01 1.899691379936E+03
 -3.846927038523E+00 5.546301394564E+00 2.755283952970E+01 7.036216650099E+00 -1.540634315514E+01 -3.918057712460E+01 -5.225257077025E+02 -2.530622390697E+03 9.946807160732E+01 9.635348321239E+00 3.939751331502E+01 -1.868858553613E+02 -5.265006255675E+01 1.139129050533E+02 -9.349965603949E+01 -2.930794590545E+00 -1.571474638496E+02 -1.449107718324E+01 8.433325709964E+01 -1.266485184664E+02 -8.815804055440E+02 6.019068521394E+00 -8.919185545054E+01 -1.690938874643E+01 5.185336032814E+01 1.387209685609E+02 -1.096225150212E+02 2.688543530287E+02 -1.344079030661E+02 6.575048097831E+02 5.460100419448E+01 -8.013588449242E+01 1.084575515296E+02 6.214458859804E+01 3.644208733995E+01 2.198872030207E+01 -7.660412692737E+01 3.987058502841E+01 1.643001117158E+02 -5.439476868735E+01 9.044776067301E+01 1.119641806968E+02 1.118963401149E+02 -9.824445613994E+01 -1.410850976917E+02 -2.016019860587E+02 -2.383465297041E+02 3.374147137775E+01 2.494842127114E+01 3.373283660719E+03
 6.149077326791E+01 3.290102830917E+00 -8.579191080288E+01 1.156467861990E+01 -5.105627929502E+01 -2.560585221063E+01 -7.285267020838E+01 3.392896119384E+01 3.101642735311E+01 -1.510118176774E+00 -1.386192160915E+01 8.191928111395E+01 2.844108612159E+01 -3.072405389371E+01 2.798108597207E+01 -1.052687528236E+02 1.357577469687E+02 -2.923788279990E+01 2.780532560415E+02 -3.422032598000E+02 -3.615622670486E+03 9.590419073347E+01 6.504234693069E+01 -7.152126508873E+01 -1.614220517097E+01 -7.343874848033E+01 4.755907897711E+01 -1.284351212090E+03 3.049777685470E+02 -2.581579555301E+03 -3.790687759114E+01 -3.679389004667E+00 -2.668342693644E+01 -5.053707459663E+00 8.415639945360E+00 -9.965162664331E+00 4.741338586778E+01 -1.308059860921E+01 -3.721459876314E+01 9.649178200046E+00 -3.843616736336E+00 -4.898828306354E+01 6.133868195287E+02 -3.176573264008E+02 -6.024892872918E+02 7.862645052771E+01 4.111123725833E+01 4.362433730478E+01 4.502835680938E+02 1.675091869674E+02 6.876209150967E+03
 3.876172393240E+00 1.139910899225E+00 3.147439263007E+01 -1.059734862807E-01 -9.161593901829E-01 -1.481909471344E+01 -1.253827583631E+02 -4.282364227507E+02 -1.673027693563E+01 -4.072144559564E+00 -7.634584165117E+01 1.278701067296E+02 -1.641083695065E+02 -8.465569637048E+01 -9.861170727240E+01 5.689568502426E+01 5.590708509789E+01 2.760386738715E+01 2.479099187941E+00 4.625166364597E+01 7.374358606475E+01 -3.672858339504E+01 6.651295044413E+01 5.216775598967E+01 -1.517725840626E+02 1.685337997431E+01 1.053031165557E+02 -2.277373033646E+01 4.366370177025E+01 -4.497198558820E+01 -5.572476399445E+01 1.794485012934E+01 -3.449177615960E+01 -6.926689092767E+02 1.656692062802E+02 -5.750248899600E+02 -4.062343766526E+02 1.460556582260E+02 1.087488261192E+03 4.030142042978E+00 -5.890386146822E+01 -1.241033218296E+01 5.845689288175E+01 1.528957123254E+01 -2.725073325088E+01 -1.658435311279E+02 2.534107853766E+02 3.759489080915E+00 1.849203502309E+01 6.454117756780E+01 -2.779495361031E+01 1.969489518998E+03
 -5.375321565428E+00 -7.074061577116E+00 -3.505122045059E+01 5.729683421172E+00 -3.033677374098E+00 4.288529300739E+01 -3.866830768565E+02 -2.443484985326E+03 -5.501774371901E+01 4.375443074256E+01 -2.838336592250E+02 1.068962670397E+03 7.882661773254E-01 -9.711831034204E+01 3.748422803250E+01 2.966431452415E+01 8.237781646762E+01 2.539125742798E+01 -1.541400022721E+01 2.047787247455E+01 1.497437003954E+02 -3.858516164912E+01 6.856701300403E+01 2.735961758276E+01 -8.310726523698E+00 -1.459364423508E+02 5.741033826533E+01 -7.991313679379E+01 3.750244150243E+01 -1.307343871092E+02 -3.993867399773E+01 5.534035330149E+01 -4.858704037408E+01 1.122362775402E+02 -7.090093411515E+01 1.288071812058E+02 2.229677358513E+02 -1.099908722997E+02 -6.689879712703E+02 5.375506223984E+01 -7.337167986629E+01 -1.304381445125E+02 7.542188614204E+01 8.608318703354E+00 -2.599494835947E+01 2.466815070448E+02 -4.435416061493E+02 -1.040763317465E+02 5.445164876955E+01 3.886546458835E+01 3.838687917074E+01 5.921113652005E+01 3.566373755914E+03
 -5.987970451933E+01 7.191959865558E+00 -9.820462501817E+01 -1.781666313446E+01 1.846693143804E+01 -7.103142174810E+01 8.398276981083E+01 -4.144230802115E+01 2.097687948506E+01 -7.782611129676E+01 8.478619229087E+02 -3.576819047414E+03 -9.419656198009E+01 -5.979926014592E+01 -7.597631739025E+01 2.862452931136E+01 7.145257613131E+01 2.770736276374E+01 -1.629636485303E+01 3.973631865632E+00 4.569295278174E+01 -2.665972065206E+01 4.440480416695E+01 2.102899999030E+01 9.007846212944E+01 -8.259000493856E+01 -3.144748938078E+01 -2.649538043566E+01 2.498773096103E+01 -1.457741345424E+01 -2.167446924705E+01 7.132950376491E+00 -2.292315860910E+01 -5.510533643184E+02 1.258871318292E+02 -4.843118565552E+02 1.152448354143E+03 -4.393427184010E+02 -2.902469845161E+03 5.772280340257E+01 -2.272036448153E+01 -1.786447438943E+01 1.397997457591E+01 1.000504098998E+01 -2.134021596414E+01 6.852395696682E+01 -6.522386789618E+01 3.480387167020E+00 2.273065268431E+01 1.432165411158E+01 1.039789479671E+01 -6.194866937183E+02 -3.934700193113E+02 7.179511563578E+03