#BIOSYM hessian 1
@Type: Hessian Update
@Units
 distance: 	A
 energy: 	Kcal/Mol
#header
@natom 19

#label
L1      L2      L3      L4      L5      L6      L7      L8      L9      L10     L11     L12     L13     L14     L15     L16     L17     L18     L19

#element
Li Li Li Li Li Li Li Li Li Li Li Li Li Li Li Li Li Li Li

#matrix
57
 3.286169207014E+01
 3.888667809170E-01 3.089096023015E+01
 -1.166182926142E+00 -1.857357645891E-02 2.991168350533E+01
 -6.973348073779E+00 -8.527924374952E-01 -7.283742013800E+00 2.855858562818E+01
 -1.668349617954E+00 2.660314472773E-01 -2.096077925414E+00 -4.441578169401E-01 2.553964916911E+01
 -5.692878054314E+00 -1.069162997273E+00 -3.983236273116E+00 -1.889842080796E-01 8.047249335525E-01 2.745996866627E+01
 4.278727752321E-01 -2.670895239197E-01 -3.194474331605E-01 -1.178494402105E-01 1.586094575430E-01 7.914627005664E-01 2.361265566935E+01
 1.017176087042E+00 -1.370950373193E+00 1.909280538242E+00 -1.179165498935E+00 -3.394509595279E+00 -7.676083780707E-01 1.339895383685E+01 2.015471213443E+01
 -1.066997155239E+00 -2.561522187560E-02 -3.203602143067E-02 -1.112548847190E+00 -2.471614351545E-01 6.030769284942E-01 -4.890654839456E+00 -2.796517422480E+00 1.680715264350E+01
 8.458409069413E-01 -5.613295943723E+00 -3.340395814408E-01 -1.839808476047E+00 3.381716862920E+00 -2.792775355342E+00 -3.853935687117E+00 -4.192467631852E+00 -3.731295638350E+00 3.264123836054E+01
 -6.031707908881E+00 -1.215170211375E+01 -4.820385016548E+00 4.057850488027E+00 -6.244334655995E+00 5.846362696019E+00 -1.808269122041E+00 -1.969684403596E+00 -3.459380376267E+00 1.816568832903E+00 3.223995485262E+01
 -3.025766362232E+00 -1.868935889853E+00 -1.616507786202E+00 4.133209905253E-01 3.630533818890E+00 -2.833628095184E+00 -3.062876146711E+00 -2.327756414854E+00 -4.082941175230E+00 -1.555979775512E+00 6.941871056536E+00 2.686591878271E+01
 4.816775813974E-01 1.138581466425E-01 1.089553559683E+01 -1.784486585591E+01 -1.990520510873E+00 3.899528818233E-01 -2.822567245456E+00 -2.565069055684E-02 -1.443939091664E+00 -3.568915522712E+00 -8.918330894805E+00 -7.030712009759E+00 7.963327969567E+01
 1.154322896140E+00 -1.373485278644E+00 9.883653429657E-01 -5.000316298268E+00 1.033764912546E+00 -5.469207922816E-01 -9.380935234199E-01 -2.892238110657E+00 -1.806249159474E+00 5.702358209396E-02 -3.236325489787E+00 -2.652997267183E+00 8.841443472606E+00 7.232209838789E+01
 4.478867329541E-01 1.074951769246E-01 -1.473719953112E+01 5.401891255611E+00 3.043947105295E+00 -1.593392628787E+00 -4.205705810202E-01 -2.372026282937E+00 -5.307181707731E-01 -2.115552820842E+00 -1.373569745730E+00 2.112948184530E+00 -2.931464876233E+00 -6.841521121063E+00 5.480251492951E+01
 -6.785669316591E-01 1.651113927781E+00 -1.656876191221E+00 -1.343545010275E+00 -7.866672057163E-01 -1.195713380203E-01 -1.482953332750E-01 -1.667227464748E+00 -4.368452762948E-01 1.572962142064E+00 -3.849558891826E-01 -4.814101532534E-01 -1.383505331415E+00 6.665146338003E+00 4.839432386120E+00 9.242473239815E+00
 2.072838109963E+00 -7.119327721091E+00 6.415196292745E+00 -1.710481045508E+00 -3.846790403203E+00 -1.945643840206E-01 1.491518958872E+00 3.390476750097E+00 -1.025986571497E+00 -1.776186848536E+00 1.306188634075E+00 8.034312191754E-01 6.401071818296E+00 -1.917046582367E+01 -1.063891574297E+01 -5.571874530573E+00 3.400798209321E+01
 -1.884753331757E+00 5.677865360940E+00 -2.734352838374E+00 -5.741036762393E-01 6.261170780688E-01 -1.576111547736E+00 -9.187525712294E-01 -4.489262523988E-01 -5.056085432994E-01 7.621051461841E-02 2.976570871370E-01 1.115007236698E+00 2.466785752840E+00 -7.813644333439E+00 -3.122521895251E+00 -2.382884167858E+00 7.401765512055E+00 2.017647527947E+01
 -8.977238589803E-01 -9.410669458825E-01 8.250445213454E-01 -3.363671938396E-01 -1.090000306688E+00 3.366728885945E+00 3.482008466973E-01 -7.914695922349E-01 4.453119510885E-01 1.263729950046E+00 -1.040481839638E-01 -1.947436964206E-02 -8.058711516538E+00 5.678096891318E-01 -8.719354188722E+00 -6.479870474059E-01 -6.792310372476E-01 -6.810279175900E-01 2.373673960888E+01
 -2.578166710633E-01 -6.463621411772E-01 -1.340247260931E+00 -5.026724557800E-01 -1.191517972181E+00 3.165757588144E+00 -5.003932378940E-01 -3.968489624178E-01 4.649564038813E-01 -8.691511236218E-01 4.667408133552E-01 1.042723353099E+00 4.569296789876E+00 -1.588398225963E+00 4.559915128260E+00 -2.593273587234E+00 -2.185377853135E+00 -3.986307981810E+00 8.038955717396E-01 1.962576156793E+01
 -2.201753558424E+00 1.201936072742E+00 -1.398680090464E+00 4.283728691498E+00 2.654515217422E+00 -5.926124478411E+00 6.043344835757E-01 1.087287620299E+00 6.640124336775E-01 -2.070376283616E+00 7.931161763699E-01 -1.633141628797E-01 -1.290687402119E+01 2.177049958536E+00 -5.502844762527E+00 -2.988070351025E+00 -3.233573899241E+00 -4.372286270436E+00 7.921040078203E+00 -1.102698530904E+00 2.271305513613E+01
 1.582687404439E+00 1.758220893239E-01 7.819354456410E-01 -2.037972832931E+00 3.365653961632E-01 3.302133260345E-01 1.226901711892E-01 -1.140834822876E+00 1.638158987389E+00 9.619644977905E-01 -9.113837124542E-02 1.038476087349E-02 3.059728661779E+00 2.478953285256E+00 -5.701518204279E-01 2.584200902832E-01 1.614010078974E-01 6.817479653171E-02 1.088048171278E-01 -2.154214517224E+00 -7.826173973787E-01 2.633844246277E+01
 1.102766841759E-01 4.630103078899E-01 1.570821038479E+00 -1.128515204398E+00 -3.279423033180E+00 -2.747370693158E+00 4.542202321673E-01 -3.658870896587E+00 2.926268829361E+00 1.505382596401E+00 -3.926011619235E-01 3.140230506133E-01 1.004154089999E+00 1.041343586109E+00 2.135650449128E-01 5.899593812148E-01 -1.433197544567E+00 -1.205307495967E+00 -3.553288259655E+00 -7.618770161326E+00 -2.742259296775E+00 -5.406190025110E+00 2.207443913522E+01
 1.493570048572E+00 -3.339640501858E-01 -9.203405937950E-02 -2.529021528032E+00 -4.015652178019E+00 -8.134176791805E+00 -9.703449181626E-01 2.728695867309E+00 -4.052254970224E+00 -1.370387638457E-01 -1.520469932953E+00 -1.839592597354E+00 8.375387536945E+00 2.486743155089E+00 -3.643249705154E-01 -1.614256416283E-01 8.535393413411E-01 2.684910508914E-01 7.153160638214E-02 -5.753793225664E-01 -1.071181705415E+00 1.305347879005E+01 -3.614809818578E+00 3.055506190406E+01
 4.870919605264E-01 1.485907489905E+00 1.265514159623E+00 -1.354482368957E+00 4.664761381427E-01 7.064253490792E-02 -3.878304184749E+00 2.010811888767E+00 3.030414362724E+00 3.001254807330E-01 -8.879624585239E-01 1.384089835533E+00 1.331546790037E+00 2.655155534531E+00 -2.057288186340E+00 -3.587693173769E-01 -3.262419933045E-01 -1.902242533400E-01 -2.361362654135E-01 1.108654975930E+00 4.312869674351E-02 -2.766881836190E+00 4.425905259846E+00 2.172013237486E+00 1.972364562799E+01
 -8.391648209218E-01 -6.862148275456E-01 -1.784387019507E+00 -8.523844693634E-01 -5.264830384093E-01 -2.952217032632E-01 -3.313809294721E-01 -1.933718636013E+00 1.431098773032E+00 -5.851389839054E-01 2.390580395975E-02 -6.453565143813E-01 1.545281612594E+00 -1.158832413634E-01 -1.224302462038E+00 -8.049087573524E-01 -9.237358699637E-02 -4.387128617482E-01 7.404239473828E-01 -3.470181678373E-01 9.497054126369E-01 4.018216822148E+00 -5.345208189505E+00 -1.326653705792E+00 -2.453291822821E+00 2.735956928248E+01
 -1.092163900587E+00 2.537177756235E-01 -4.499054782099E-01 -1.327690897432E+00 -1.051134599015E+00 -3.550014752761E-01 2.069029727491E+00 -2.195976102375E+00 -3.050729432264E+00 -5.795202211093E-01 1.648505279198E-01 8.993817369373E-01 7.247219264685E-01 1.479403992416E+00 -4.989784922030E-01 2.781147092627E-01 1.080516496008E+00 -7.541978066511E-01 2.437885412882E-01 -1.732208503637E-01 8.423509198035E-01 -5.227183441503E-01 1.621596753468E+00 -5.272602128591E-01 9.143641353434E-01 1.495497536193E+01 2.282489945073E+01
 3.009148486931E-01 1.509981847491E+00 -2.435671699564E+00 -5.795628182238E+00 5.532361035851E+00 2.278523753221E+00 -1.460555099489E+01 -1.102091877708E+01 6.616751139021E+00 -7.073035731752E-01 -1.760665303598E+00 1.236127083040E+00 -6.366720659325E+00 -9.300033542055E+00 2.794669021771E+00 -4.204003486753E-01 -2.515575346937E+00 -2.832637018076E-01 1.097384291201E+00 8.172199965035E-02 2.625520664427E+00 -1.392589621925E+01 2.094383828376E+00 -1.312356633707E+01 -1.128417742516E+00 3.044558730713E+00 -6.927600539952E-02 7.223583159438E+01
 -1.297558293266E+00 1.024558035443E+00 1.864791489012E+00 4.719633456664E+00 -4.195731747849E+00 -4.695127316788E+00 -1.145828353740E+01 -6.144391979059E+00 1.645572280351E+00 -9.514013544598E-03 -4.324141868069E+00 -1.596052690733E+00 2.903771415613E+00 -9.317805416056E+00 -1.991761444861E+00 -4.686755480802E-01 -1.545023461355E+00 5.046239730370E-01 -1.156453007698E+00 6.184425262143E-01 -1.283872847671E+00 6.175386046366E+00 -1.323191362830E+00 6.997070820962E+00 -9.209255936140E-01 -1.316517110603E+01 -1.348187917450E+01 2.977989642728E+00 5.278193598659E+01
 3.338430999534E+00 -1.848052015962E-01 4.078856373034E+00 4.143324445983E+00 -1.127423193795E+00 -1.831116072952E+00 7.547695025303E+00 5.582086803365E+00 -4.339169948378E+00 4.786232010040E+00 1.614490000970E-01 -1.193143132432E+01 7.961218201108E-01 -1.402746071427E+00 6.912088066330E-01 -4.492785629049E-01 -1.791823443671E+00 -1.725475422024E+00 -9.824407459019E-01 -1.548721655618E+00 -8.454901264093E-01 -1.335345258354E+01 2.493734555931E+00 -1.201607026972E+01 -2.640091494694E+00 -1.439622610171E+01 -1.495208626148E+01 7.635562314986E+00 5.311925607424E+00 6.513969834479E+01
 -1.144499027713E+01 -2.139759249951E+00 2.303404340219E+00 2.930305252465E-01 -2.356508618423E+00 -1.728253758383E+00 -8.653774407693E-01 8.976735270173E-01 3.814344213183E-01 -2.193259876408E+00 9.093578341804E-01 1.594153095807E+00 -8.071456780510E+00 -8.129918906457E-01 -5.706184947641E+00 5.141754093256E-01 -1.053018709080E+00 -5.040129231338E-01 -7.422615869262E-01 8.912915018685E-01 1.779916656694E+00 -1.850769362322E+00 -6.461366841616E-01 -1.935210798368E+00 1.402940410603E-01 8.079189997188E-01 4.491197218732E-01 -9.130344164626E-01 -5.408033968213E-01 -1.949523295140E+00 2.768722527696E+01
 2.125032086776E+00 -4.104500081876E-01 1.338764166102E+00 -8.201423968480E-01 3.003120890791E+00 4.123545688859E-02 1.192739031591E-01 -1.561637653372E+00 -2.042842883332E+00 1.384356199009E+00 -1.392661678978E+00 -2.678345055876E+00 3.103146309149E+00 3.692975482379E+00 -5.045360537035E+00 -6.345796523029E-01 -2.719020527741E-01 -2.975368608210E-01 3.324377899831E-01 -8.965760130262E-01 -4.077358785873E-01 3.624040277839E+00 5.029647351579E-01 3.355070454215E+00 -5.963913773222E-01 -3.476619721174E+00 -2.175972385419E+00 -2.315552207947E+00 3.727950184706E+00 6.206968077669E+00 8.359074590027E+00 2.978226830056E+01
 1.213783284162E+00 -2.862347022289E-01 -4.919775852288E+00 2.394816018911E+00 -1.520455279625E+00 1.581748203132E+00 2.643187537026E+00 1.167696564926E+00 -7.072563017464E-02 -1.272926195336E+00 3.363833487329E+00 1.682696510780E+00 -1.307225166582E+01 -3.232841404851E+00 -1.382747925603E+00 -3.241704922876E-01 3.146336497465E-01 -1.901703651549E+00 -6.899701469549E-01 4.489647334643E-01 2.324398262795E+00 -2.365391533294E+00 -1.100257049672E+00 -4.310639040757E+00 -1.419593543286E+00 1.563104101187E+00 5.442760928214E-01 3.301660453070E-01 -3.286235091774E+00 -4.729897094780E+00 5.412959729840E+00 3.025572666035E+00 2.640334764897E+01
 -2.143725066307E+00 6.344688381992E-01 -1.003336500512E+00 1.172718078467E+00 1.729060248833E-01 4.599876172809E-01 -4.244562856631E-01 -1.042289638946E+00 1.641628635222E+00 -1.607943685212E+00 1.340094782690E-01 -4.707335838310E-01 -8.550215512921E+00 -6.143082182124E+00 8.806943896739E+00 -4.063732334862E+00 -4.878636160440E-01 2.410164372503E+00 -9.406020782727E+00 -2.883453554469E+00 1.103001333784E+00 -1.031004359625E+00 4.795924925764E-01 -4.359349126642E-01 -1.486591492231E-01 -7.141393076674E-01 3.924319239859E-01 1.077826190337E+00 1.533698610814E-02 1.692184002374E+00 -7.947801712902E-01 3.809053704830E-02 2.589700011105E+00 2.623712446831E+01
 -1.611384767142E-01 6.686951246292E-01 -2.012392245635E+00 2.173255448871E+00 8.205547480625E-01 5.681726289191E-01 9.241758452412E-01 -2.526533534683E-01 4.464028106951E-01 6.186109880741E-01 1.718337363945E+00 -2.850890944540E-01 -1.396404820605E+01 -1.372288997924E+01 1.029203367011E+01 9.913563654512E-01 -7.578384237560E-01 -2.178247506153E-01 -1.860423047873E+00 -1.915393769899E+00 -3.507537232673E-02 -7.969837657387E-01 1.465665718259E-01 -7.668023253692E-01 -1.014548104585E+00 -1.646289142590E+00 -2.278403349124E-01 1.269188532404E-01 -1.862818954763E+00 2.423692797156E+00 -4.961886657472E-01 -2.363815676477E-01 1.838491866923E+00 8.976056494592E+00 2.820524970736E+01
 1.577059727393E-01 4.772108075506E-01 -3.170517497874E-01 -8.729701894163E-01 -1.753768807198E+00 -1.151617813387E+00 -6.904943546744E-01 -5.573596486207E-01 -9.811221168786E-01 -1.456901394149E+00 -6.753181146716E-01 -4.144285905387E-01 1.041082326538E+01 1.186494419541E+01 -8.194520042055E+00 3.647713469079E+00 -3.085163418997E-01 -4.464982778666E+00 -2.561336460986E+00 -6.394504449387E-01 3.475650549326E-01 -7.498873535651E-01 -1.196134468519E-01 -7.164887635199E-02 9.740887854234E-02 1.502548393636E+00 1.513757902352E+00 -2.282939972245E-01 1.728539024834E-01 -2.011920233628E+00 2.823954907368E+00 -2.408765272663E+00 1.457754761054E+00 -8.917806089083E+00 -1.206097502868E+01 1.751982321249E+01
 -1.308033037507E+00 -9.049901944474E-01 -2.953626937973E-01 2.006742322767E+00 -3.552399429836E-01 6.384084014336E-01 7.695375723979E-02 1.581909312259E-01 -5.289702255693E-02 -1.427234734346E+00 2.122780118760E+00 8.235278052392E-01 -1.472666737903E+00 -1.325115565214E+00 1.196261466907E+00 -4.421716066735E-02 -1.484993809842E-01 3.363280243492E-02 -1.390549186509E+00 2.463309035702E+00 2.042306456031E+00 -6.431998111813E+00 -4.078395625004E-01 4.108283143522E-01 -7.752850580397E-01 -2.194721637346E+00 -7.459847933076E-02 -3.898323364345E+00 -2.469739749855E+00 5.269593544323E+00 4.090611060402E-01 1.474183853493E-01 -1.804868600309E+00 -1.928908959853E+00 -8.918905992508E-01 -9.364720241489E-01 2.120166801241E+01
 2.237453836573E+00 -8.609279617464E-01 1.270927058387E+00 -2.704263904200E-01 -6.524686507986E-01 -3.647973148449E-01 2.820274281790E-03 2.835671207845E-01 7.137957122184E-01 2.541556320046E+00 8.756688261411E-03 -3.116397951637E-01 -5.164157674890E-01 -4.126218068899E+00 -5.946618014012E+00 7.561337298840E-01 -9.058899575524E-02 -1.147249992593E+00 2.198195228646E+00 -4.674505695943E+00 -2.570406796695E+00 1.632570353027E-01 4.593842559285E-01 1.138106653574E+00 5.463647343903E-02 -2.048978706604E+00 8.051182534119E-01 -2.085968031290E+00 -1.955820666259E+00 4.824905989481E+00 -2.087596460040E+00 1.831737887067E+00 -4.401009669288E+00 -1.596870925520E+00 -2.699234655372E+00 -1.045559606829E+00 7.010258512308E-01 2.191191679850E+01
 2.212597072685E-01 7.606597342848E-01 -1.150848005108E+00 -1.816867222959E+00 -3.702141473599E-01 1.501232828629E+00 1.698652198050E-02 2.112232876653E-01 1.278954872202E+00 -4.021146090153E-01 1.068915127479E+00 -4.843153805005E-01 -2.205780559586E-01 -7.652543708873E+00 -1.013501770551E+01 -1.290014857763E-01 -2.804448078722E-01 -4.445832706704E-01 2.524013626854E+00 -5.420504942454E-01 -5.688960901313E-01 2.700396678725E-01 -3.433880277900E-01 -2.352184298808E-01 -4.119531420454E-01 -3.106980621489E-01 -2.082576476839E+00 5.999571687480E+00 5.220548952364E+00 -9.226200797245E+00 6.134946630669E-02 4.835922453372E-02 4.599413020447E-01 -1.840540727037E+00 -8.831341507797E-01 -6.303819729022E-01 6.054217164120E-01 8.037082968450E-01 2.649621530410E+01
 -1.625213305720E+00 -1.538148236911E+00 -5.880605002292E-01 6.493945864613E-01 6.432141959338E-01 1.537599555397E+00 6.745182768213E-01 9.265986519061E-01 -1.051982402710E-01 -5.106840422109E-01 1.305789684620E+00 -1.652649557644E-03 1.670844037857E+00 -1.429538013722E+00 -4.065689015056E-01 -4.494646278940E-01 1.610155013770E-01 7.361034045589E-01 -1.447219070788E+00 -1.697372623596E+00 -1.075513185431E+00 1.525689891681E+00 5.224794584356E-01 5.077412808893E-01 -1.037355759149E+01 -1.384838698232E+00 -1.372280864324E+00 -1.347789577688E+01 3.130360075867E+00 1.524633068245E+00 -5.915656209775E-01 4.599625001837E-02 -1.407648724013E+00 5.810853002745E-01 8.014642599119E-01 -2.017374153295E-01 -1.587362554891E+00 2.463818083965E+00 -2.069530122924E+00 3.188034055599E+01
 6.476397850516E-01 -1.194131446630E+00 2.033385403430E-01 -6.110058287904E-01 -1.636289139161E-01 1.190143273064E+00 -2.314102861311E-01 -3.647093144833E-01 -5.965603925511E-01 -5.207272817627E-01 -5.266674862471E-02 -8.172243533058E-01 2.809914291335E+00 3.035838293571E+00 -6.663579787980E-01 4.435899935966E-01 -4.457712928698E-02 -6.260425332382E-03 1.867842267558E+00 -2.271377950195E-01 -2.097813891991E-01 7.912766423522E-01 -3.412057833752E-01 3.952855143379E-01 -3.034135118900E+00 -3.795993200108E-01 5.476591080273E-01 3.497317884150E+00 -1.393849456330E+00 -1.773979787397E+00 -1.696449358021E+00 2.630962456805E+00 -2.134187735276E+00 -8.184643783223E-01 -5.983934486446E-01 -7.491629828745E-01 2.419079975165E+00 -2.979293941771E+00 2.977933675802E+00 3.436457122842E+00 2.590117386926E+01
 4.690373543445E-01 -4.532924480980E-01 5.132502128598E-01 1.866045797762E-01 -1.404297182812E+00 -1.676442714440E+00 5.147000254430E-01 3.301347251595E-01 1.010687581821E-01 1.613896344742E+00 -1.414011690578E+00 -2.661029416929E+00 -1.596735738774E+00 -1.332748047567E+00 1.277465525155E-03 -9.345695734743E-01 1.002956638786E+00 -1.027244708183E+00 1.229235637596E-01 1.227841728262E+00 1.489416464391E+00 -9.834350898936E-01 1.772611650001E-01 7.594490732172E-01 -3.179274383823E+00 1.274179536360E-01 -2.107979915539E+00 4.915470665067E+00 -8.110659770690E-01 -1.989490069861E+00 1.804779425848E+00 -1.440607689808E+00 4.704682167881E-01 -1.012786835190E+00 -1.697467985191E-01 7.691343315502E-01 -2.576088958985E+00 3.109776774462E+00 -3.087375153668E+00 -3.004910653826E+00 -1.001771762665E+00 3.142596100639E+01
 -1.159537194447E+00 5.117106678331E-01 -7.236862819596E-01 7.198651774330E-01 4.255694559019E-01 1.978849094791E-02 2.566375894334E-01 8.246684331220E-01 4.230996529432E-01 -5.259686772191E+00 6.899574224399E+00 3.508172472470E+00 -2.839983343671E+00 -7.610564267134E-01 3.336933966683E-01 -8.141932199735E-01 7.305518256933E-01 -7.875010843147E-01 -1.106910957595E+00 1.877382906437E+00 7.541187991931E-01 -1.576826582648E+00 2.525380200111E-01 -2.238736660441E+00 -4.104318305963E-01 -1.204570583375E-01 -2.660980212061E-01 -2.859482993346E+00 1.323338709002E+00 -2.359897234391E+00 2.020635933611E+00 -3.320058395343E+00 3.088520728937E+00 -2.901533216063E-01 -6.599609674984E-01 8.757568072039E-01 6.268868530431E-01 -1.171076726496E+00 4.522831664701E-01 -3.157068717903E+00 -3.704365398159E+00 6.476570565150E+00 1.549075840458E+01
 1.412583668862E+00 -6.715384005527E-02 -5.416972969731E-01 -9.627954127312E-01 -1.801656406905E+00 -8.838330062989E-01 -1.253176855715E+00 -1.184983586072E+00 1.235376939543E+00 5.547878882897E+00 -6.167362397730E+00 -3.028536895286E+00 -2.770504254007E+00 -1.782406280078E+00 3.347134261523E-01 5.608559193478E-01 -1.864581973165E+00 -9.027794593803E-01 1.389903668600E+00 -5.657500777010E-01 6.310971851276E-01 -9.871707784962E-01 1.463864547311E+00 7.095267597042E-01 -6.890620536935E-01 -9.124929158344E-01 -1.102655760291E+00 8.556744042878E+00 -9.461701060862E+00 3.216317308515E+00 -5.548241605318E-01 -5.023231317411E+00 1.963635978384E+00 -1.592324156618E+00 -1.142154128227E+00 1.040593041134E+00 -2.983096138628E-01 5.684282741188E-01 2.330731106316E-02 -1.552354009190E+00 -2.766049636710E+00 6.831766322901E+00 -1.408632442776E+00 4.044361139778E+01
 -2.138379537051E+00 -8.066491670557E-01 -1.062756792026E+00 1.624481171957E+00 -7.234729166360E-01 8.512129139915E-01 -1.916876363078E-01 -1.167982075611E+00 1.157494249940E+00 2.933617619425E+00 -4.239619803799E+00 -9.145606285500E-01 -2.653553584396E+00 6.575887392060E-01 3.378642087820E-01 4.240106469022E-01 -1.850893900548E+00 -2.068272729173E-01 4.839439975395E-01 -1.737116462572E-01 1.497962491223E-01 3.411314615837E-02 6.947351342763E-01 -1.844040891112E+00 -4.618218244287E-01 1.470184282386E+00 1.389567440065E-01 -1.089106116378E+00 2.694327906896E+00 -6.565102013911E+00 7.875413161648E-01 -2.318382513984E+00 2.191270317174E+00 -1.628718283054E-01 -2.539161540441E-01 -2.599624036058E-01 -1.048845459525E-01 1.794964179997E-01 4.805930622701E-01 3.904107420772E+00 3.918467103168E+00 -9.086925674734E+00 -6.828324674244E+00 -5.461048137399E+00 1.806757971908E+01
 -8.201484729006E+00 2.512072558670E+00 -2.025266583687E+00 9.767938346595E+00 -6.100696934612E+00 3.729785046941E+00 4.690472302685E+00 1.469725320442E+00 1.925100455190E+00 -2.269211095023E+00 1.247690546985E+01 1.438124613324E+01 -4.641444049044E+01 -1.330053233505E+01 -2.479919315583E+00 2.796585547300E-01 2.695056817343E+00 1.376666495440E+00 1.284954631536E+00 9.910907297791E-01 1.804809900280E+00 -5.912898744935E+00 1.424924331791E+00 -9.632990972306E+00 -6.616795901877E-01 -2.228164156404E+00 6.498087219088E-01 -6.120699824736E+00 -1.674463515880E+01 -1.313067764901E+01 2.286552691975E-01 -1.945366826112E+01 8.237565521131E+00 8.431884552255E-01 6.163734337299E+00 -2.970276053387E+00 1.465666132206E+00 1.948787137164E-01 8.003541200808E-01 -1.077238723783E+00 -5.241305744168E+00 2.661977074480E-01 1.251612942484E+00 2.985008601567E+00 6.479387332829E+00 1.293301888022E+02
 -5.674939577487E+00 -4.784725033777E+00 -1.313484844519E+01 9.731708515147E+00 -7.499618364471E+00 5.551400747653E+00 4.654823868334E+00 8.304323166469E-01 5.815679851752E+00 6.412147529136E+00 1.609287037557E+01 9.359420296397E+00 -5.113985921008E+01 -4.129145874885E+01 1.623470546188E+01 -5.535213357350E-01 -1.350150054728E+00 2.888922297486E+00 4.491611276756E+00 2.083041354626E+00 4.866758458711E+00 -8.264909718264E+00 6.420280677531E-01 -1.167011727530E+01 -3.296801843984E+00 -7.020252916038E-01 -3.873866894800E-01 1.067537816171E+01 -1.755338684973E+01 -9.438990115020E+00 -3.468321429707E+00 -3.576638790264E+01 1.220943205225E+01 1.083685134763E+00 7.299167571241E+00 -3.608807250261E+00 3.437892083895E+00 9.382734100465E-01 2.231338430969E+00 3.274312374545E-01 -1.217237924536E+01 -1.141058093623E+00 -7.418030410758E-01 9.437822307001E-01 1.266372214048E+01 8.897234154221E+01 1.899862207544E+02
 6.731858819392E+00 -4.752346286480E+00 -1.222568777442E+00 -7.630894887960E-01 8.384113591419E-01 1.649784523350E+00 1.174519017536E+00 8.633176340921E-01 -4.156049019040E-01 9.435090612277E+00 2.492514982075E+00 -1.722889601356E+00 -8.300490561039E+00 7.227164869203E+00 -8.584093519853E+00 7.986999507538E-01 4.051106562573E-01 3.087124024143E-01 6.410715092852E-01 4.115852636974E-01 -4.212347319962E+00 2.376165135893E+00 -3.912246205020E-01 2.142998539736E-01 -3.351112778460E-01 -3.252255115711E+00 -3.287641684018E+00 -1.391166841865E+01 -6.899609895701E-01 -3.056001263033E+00 -4.868176314037E+00 3.364844385521E-01 -5.214947054661E+00 -3.240837765883E+00 -3.184622848011E-01 -1.255744753372E+00 -1.120423995350E+00 2.667342028322E+00 1.308039011603E+00 4.187778739682E+00 -3.809512050197E+00 -4.843798082339E+00 -1.346600464764E+00 1.046757565527E+00 -1.439348923457E+00 1.340181400337E+01 2.002380817227E+00 7.243305156800E+01
 -3.090049557234E+00 2.535354777329E+00 8.324734637031E-01 -2.823521824705E+00 3.843725718266E+00 -1.952562029808E+00 -1.696253078464E+00 -2.838767626769E-01 -3.199065662787E+00 -1.087514795705E+01 -7.905359048726E+00 -6.596374587674E+00 2.305913837361E+01 1.157691587617E+01 -3.949108366577E-01 3.286215318278E-02 -6.465397585204E-02 -3.822038099793E-01 -1.823499545663E+00 -4.235290219355E-01 -7.991638510309E-01 8.634043804103E-01 -2.108423684758E+00 2.447114724163E+00 -2.107140448652E-01 2.334809194070E+00 2.829495595628E-01 -4.603266024857E+00 8.960973511961E+00 -1.716642523309E-01 -8.987799059668E-01 7.321235214007E+00 -3.234750759351E+00 2.882138585645E-01 -2.998558369796E+00 2.200422154480E+00 -1.069385602721E+00 -2.648885813502E+00 -1.398959001976E-01 1.521393114009E+00 3.931299604625E+00 -4.191878245873E-01 -1.239502484123E+00 -4.972040427162E+00 -2.060225902372E+00 -4.159203434558E+01 -5.343621189987E+01 -1.063414473565E+01 3.973748040975E+01
 2.808181754134E+00 -3.392549544237E+00 5.742895724382E+00 -2.936989450228E+00 1.415257524554E+00 -2.807151665208E+00 -1.687035203895E+00 1.322348148925E-01 -1.583561860434E+00 -6.171953656335E+00 -8.483747212480E+00 -3.540901994165E+00 2.360967277542E+01 1.063839461620E+01 1.085030769669E+00 7.645237038839E-02 3.305295299222E-01 7.064680967634E-01 -1.640541160504E+00 -3.676634244459E-01 -3.650845677471E-02 1.748180223045E-01 -1.655826508663E+00 1.331828063453E+00 3.011278602350E-01 2.350544015076E+00 -3.123693150817E-01 -4.697112885235E+00 7.348584788527E+00 -1.401874966938E-01 1.880861169122E+00 1.659920773125E+00 -1.142060558927E+00 4.895037498477E-01 -3.521863406690E+00 4.390918226398E+00 -8.780058959765E-01 -3.769225135515E+00 -1.461037211672E+00 -4.491822412089E-01 2.759552554870E+00 -4.872688751082E-01 2.802092596351E-01 -5.499692134826E+00 -2.349554626428E+00 -3.472248032381E+01 -4.876563556981E+01 -4.304393201962E+00 1.779813043818E+01 3.228215126323E+01
 -1.066340171092E+00 8.047863352460E-01 -3.010477176410E+00 -1.026361711787E+00 1.126123685551E+00 -7.381510531504E-01 -1.655829886217E+00 -8.401860354338E-01 -6.931538015691E-01 -3.992814605411E+00 -6.733500745145E-02 -1.877719548043E+00 3.278795911430E+00 3.550975100832E+00 -1.359070810136E+00 -1.108258072969E+00 8.321767365149E-01 1.251827841932E+00 -5.916667504997E-01 -1.693233704842E+00 -3.538952814307E-01 1.030371011887E+00 1.705503899784E+00 7.712313740855E-01 5.458214069795E-01 1.477058415433E+00 1.198601431182E+00 1.183298315383E+00 7.621814171581E-01 -7.445949099305E-01 -2.436131422929E+00 2.720210443534E+00 -1.729872940037E+00 9.111754581029E-01 3.494185015940E-01 -7.071891546285E-01 -9.653073035409E-01 1.021593199622E+00 5.707272879749E-01 -9.303768477252E-01 1.342727210043E+00 -2.010621042355E+00 -1.834119200429E-01 -2.002137727955E+00 4.097150995034E-02 -9.061809911821E+00 -1.288297294691E+01 -3.584925635214E+01 1.217869928253E+01 -6.701588724920E-01 4.848077833401E+01
 -1.459233139711E+00 -1.431252575489E-01 2.301972789244E-01 -1.237422148723E-01 -1.606953674848E+00 -1.906823709422E+00 -7.293380264832E-01 2.827723300942E-01 4.522832238858E-01 -2.688831345303E+00 -1.133026351711E-02 -3.881725657246E-01 5.486437858733E+00 4.431308184740E-01 8.162830140180E-01 -8.605601139362E-01 -1.570145605576E-01 6.976239404465E-01 -2.644322232429E+00 -1.152331150464E-01 -1.826319867181E-01 -3.090725978610E-01 2.096026333734E+00 1.091497804841E+00 6.045667696927E-01 9.003888467097E-02 1.650130071155E-01 -3.032698145160E+00 1.484739901879E+00 -1.243756139339E+00 2.066133017187E-01 -2.948490904807E+00 1.428010642548E+00 1.512395720406E+00 -3.011681434350E-01 1.393309449236E-01 2.964962845813E-01 -1.209317752218E+00 -1.231261500480E+00 -2.064322220735E+00 -4.600783141727E-02 -2.787782854262E+00 7.292285139837E-01 -8.399577128136E-01 -2.927324665826E-02 -2.821501029085E+01 7.008796515744E+00 -1.048644265509E+00 1.141814464076E+00 4.540836907048E+00 9.526634192096E-01 3.460200989348E+01
 1.338679778874E+00 -1.745600475169E-01 1.458229656136E+00 -2.047793670986E+00 -3.019804565569E-01 -1.267097747922E+00 -6.756667536135E-01 1.386697587125E+00 -1.587494305616E+00 -1.759373050381E+00 -3.664384996958E+00 -1.428995991934E+00 1.084403780865E+01 4.173227383679E+00 -5.625340159440E-03 1.263993783208E+00 8.790385801040E-01 4.186788880959E-01 3.439506025982E-01 -1.277403370564E+00 -1.357317266526E+00 -2.527063790199E-01 -9.201700190149E-01 1.492599567920E+00 -1.992927890305E-02 5.076880796204E-01 3.045871422866E-01 -3.192305397614E+00 3.846304621064E+00 1.059442500769E+00 -4.247608655708E-01 4.044907170304E+00 -2.755387447124E+00 -4.366612854549E-01 -1.948636911458E+00 1.335463569094E+00 -8.290550672185E-01 2.088874182194E-01 -1.622489708788E-03 -4.990193548372E-01 8.127350562000E-01 -2.684112780984E+00 -1.962767352339E+00 -3.799310305795E+00 -1.089883574319E+00 -6.160898530231E+00 -2.838708466147E+01 -1.552210251784E+00 9.977654234007E+00 8.516172299970E+00 3.103885957030E+00 -9.524366970071E+00 1.471094086802E+01
 1.245053975731E+00 2.889657182710E-01 4.998660388629E-01 -1.610618084738E-01 1.352669123596E+00 -1.463764830116E+00 -8.002803019499E-01 -6.602853808555E-01 -9.053122144751E-01 5.843509519309E-01 -1.359435057989E+00 -8.124068299930E-01 3.366505662424E+00 1.571940780852E+00 1.866166836145E+00 1.327613315271E+00 -2.432440269456E-01 -5.430538668306E-01 -1.714303902259E+00 -3.516726822502E-02 -9.087914098881E-01 -3.745559049226E-01 -7.956958732209E-01 8.770359904821E-02 -4.537891121678E-01 8.765778912442E-01 -2.694051428118E-01 -1.481722175383E+00 9.121776542385E-01 4.430147557616E-01 -2.733897594585E-01 2.864190254600E-03 7.018979606913E-01 3.932988019439E-01 1.079937482168E+00 6.252152518364E-01 -1.324931682549E+00 -1.246265102707E+00 -1.386095191404E+00 -1.189964469507E+00 -8.712430610850E-02 -4.906959013253E+00 5.515075450507E-01 -8.806525007893E-01 -6.470078969968E-01 -8.280954425839E+00 -5.132241607043E+00 2.712086868361E-01 6.814492900122E+00 2.150704050061E+00 -3.330121929464E+00 4.229286096756E+00 -3.892260092025E-01 1.448683437107E+01