#BIOSYM hessian 1
@Type: Hessian Update
@Units
 distance: 	A
 energy: 	Kcal/Mol
#header
@natom 19

#label
L1      L2      L3      L4      L5      L6      L7      L8      L9      L10     L11     L12     L13     L14     L15     L16     L17     L18     L19

#element
Li Li Li Li Li Li Li Li Li Li Li Li Li Li Li Li Li Li Li

#matrix
57
 2.278302669486E+01
 -6.661045402467E+00 9.169579478489E+00
 -7.742190149890E+00 1.040446595583E+00 2.150949134176E+01
 -8.718150347970E+00 3.188801114630E+00 8.916731253159E+00 6.557945567233E+01
 3.429468527200E+00 -1.967721567469E+00 -3.921381475822E+00 -4.352803922019E+00 6.682318008582E+01
 9.724940325823E+00 -1.303488769197E+00 -1.354779246732E+01 -1.516918841494E+00 -1.508457872532E-01 4.224455366792E+01
 -5.816003308123E-01 -2.796787927352E-01 1.063477590942E+00 -5.373141448285E+00 -9.453745765818E+00 -2.049753393346E+00 2.383848767905E+01
 1.443110177003E-01 8.041901843696E-01 8.462454307049E-01 -7.484116766344E+00 -1.300204576695E+01 -2.385684108102E+00 1.244887503710E+01 1.925597223224E+01
 -1.882341935110E+00 1.040933645561E+00 -2.747733858455E-01 -1.175202913024E-02 -3.068637703800E+00 5.316971478515E-01 3.367469590929E+00 -2.738104693122E+00 1.974794453922E+01
 -4.958717564572E+00 4.910349350466E+00 -6.778864422847E-01 2.814086233208E-01 2.421602778210E-01 -2.580009569341E-01 -5.052016708957E+00 -1.111301659450E+00 -6.782113455847E+00 2.497693841151E+01
 2.662034642393E+00 -3.664833191852E+00 1.076814905861E-02 1.535092273631E+00 -3.531173077976E+00 4.471969698146E+00 -1.153048430460E+00 -1.059064278169E+00 -1.920940373225E+00 -5.853243751800E-01 2.874593018911E+01
 1.062200660846E+00 -5.278751776489E-01 -1.449537102498E+00 -1.856538579429E+00 8.788878803752E+00 -5.828887585225E+00 -6.844948059612E+00 -1.206808808588E+00 -7.032370583949E+00 3.135994110721E+00 1.882572972690E+00 2.768306455295E+01
 -6.459565010330E+00 -9.737880694275E-01 -1.936893571970E+00 -3.436386018089E+00 -1.720298655201E+00 -1.656618847901E+00 6.535430142061E-01 8.236348992291E-01 -9.961137939122E-01 -2.226828026244E+00 -4.635975126098E+00 -6.352201978399E-01 2.538813289680E+01
 8.577367019103E-01 -1.742547614715E+00 8.677413293238E-01 -2.596762970959E+00 -1.449382170388E+00 -1.723724250680E+00 7.310785422072E-01 -1.356583880548E-01 8.399062172002E-01 -6.851167804299E+00 -1.155341041918E+01 -3.950079154624E+00 2.309462679213E+00 2.820013579664E+01
 -7.210062399078E-01 -5.015158909492E-01 2.622880394475E-02 -4.823040100531E+00 -1.381276499692E-01 -6.604873924608E+00 7.362244497096E-01 -4.454154505222E-02 3.178301206306E-01 -1.580491532285E-01 -3.385455875406E+00 -3.944389693226E-01 -1.132798620350E+00 -1.901304400450E+00 2.329673256581E+01
 4.508082057278E-02 -4.534119211572E-01 6.410575803863E-01 -1.331022105205E+00 -3.427004376766E+00 9.260578710808E-02 6.830246500100E-01 -2.995702122902E+00 1.693350350792E-01 -5.676392930311E-02 -5.121095004186E-01 -8.217110303553E-01 -1.225114579069E+00 3.559359431845E+00 -1.581132786988E+00 6.833088034172E+00
 -1.015964709702E-01 -1.763869116028E-02 -4.005782374191E-01 -5.112261183782E+00 -1.894565461361E+01 -3.415530637217E+00 1.720480289846E-01 -7.269982266777E-01 -3.079455752562E-01 1.918752803166E-01 7.434573989203E-01 -1.564004819358E+00 2.718720474636E+00 -6.973697557345E+00 5.228198346810E+00 -2.591063188632E+00 3.282577760245E+01
 7.558776627766E-01 3.813918151659E-01 -2.273941103953E+00 -1.399028973589E+00 -3.007686249043E+00 7.345524246710E-01 -2.785764289892E-01 8.257016236378E-02 1.165532303056E+00 -3.679364120291E-01 1.171231359065E+00 2.819548673546E-01 -1.916584620877E+00 6.352721266130E+00 -6.930859380663E+00 1.233871482230E+00 2.741288142662E+00 2.083360680608E+01
 -4.881509820949E-02 3.894170277366E-01 1.113204654140E+00 -6.603761715245E-01 -1.459733722827E+00 7.791060008354E-01 6.558363006423E-01 3.181342557567E-01 -4.110335504533E-01 -4.915014571181E-02 -8.356880624578E-01 -3.890581671796E-01 1.453561956587E+00 -5.982110856445E-01 1.551155152548E+00 6.974689028752E-01 4.510935625609E-01 -1.377510045135E+00 2.772139680375E+01
 9.735601208328E-01 1.051218194751E+00 1.151534676679E+00 -1.431129422608E+00 -4.364794832683E+00 7.520643077046E+00 9.971025334306E-01 4.140928312516E-01 6.514497555146E-01 1.746547145405E-01 -1.926562178536E+00 -9.781254354552E-01 -1.639804150960E+00 2.099758105226E-01 9.397545865885E-01 -6.124830100308E-04 -6.928055676706E-01 -5.708085815583E+00 4.292965582513E+00 2.645850206885E+01
 -6.540724188079E-02 -9.982292090592E-02 -2.774267455636E-01 2.466361767496E+00 7.135939947247E+00 -9.188036864890E+00 -2.425637812467E-01 2.667467305715E-01 2.320344353631E-02 -1.000576410913E+00 -6.783720795248E-01 3.677917295369E-01 -8.872714111278E-01 1.877881917813E+00 1.088758399604E-01 -5.931833145789E-01 -4.371925607137E+00 -9.487474500320E+00 9.716444352981E-01 2.154020746641E+00 2.556353823391E+01
 1.387750583325E-01 -6.600270058803E-01 4.402220397834E-01 -1.697587203154E-02 6.152631692022E-01 -1.888144599972E+00 -1.084642726633E+00 -2.442257943201E+00 3.418855909710E+00 7.543549419182E-01 8.713699952978E-01 9.391888769963E-01 -1.828553428099E-01 7.319565137266E-01 -6.487800930358E-01 3.012033370033E-01 -5.604238050190E-01 8.667210818568E-01 -2.096772330125E+00 -5.547078745281E+00 -1.508072193689E+00 1.966042432790E+01
 -1.867401381313E+00 2.895490383538E-01 -5.784138574803E-01 3.890083435485E-01 -1.286049635567E+00 -2.224064653921E+00 -1.880394970470E+00 -3.850615478675E+00 4.425508756592E+00 9.693915126158E-01 -8.800888883485E-02 3.664337431434E-03 1.171770052495E-01 -2.283607145741E-01 -5.135518764020E-01 -2.206485165144E-01 1.222611656350E+00 5.706923752810E-01 -6.354703928845E+00 -1.094585344484E+01 -3.416063099549E+00 -8.627924852720E-01 3.049160977668E+01
 -8.775071707018E-01 -3.395628121115E-01 -9.680747815090E-03 -1.811797908966E+00 -2.903942961121E+00 -6.441270765413E+00 2.024211031710E+00 5.224196310698E+00 -6.730658719070E+00 -5.570253073155E-01 4.353870222457E-01 -2.437412978669E-01 4.783905434761E-01 4.100377656695E-01 -2.121614630537E+00 -1.047537604842E+00 1.150738227197E+00 1.397205695485E-01 2.731112254502E-02 -4.181815287991E+00 1.518566415188E+00 3.827817515951E-01 -1.480500645347E+00 2.180807192434E+01
 -5.491020274417E-02 8.313815125488E-01 4.701776881935E-01 6.978548960550E-01 1.173339646173E-01 1.061469571357E+00 -1.199093407852E-01 1.333006909731E-01 -1.182467604848E+00 1.360783558758E+00 2.827181193089E-01 6.844395347223E-01 -2.076439546934E+00 2.117602684290E-01 -4.731291237463E-01 -1.223129245246E+00 3.335128675123E-01 1.033177137090E+00 2.012407219774E-03 1.579018820899E+00 -2.208286052203E-01 -1.871454521885E+00 4.401825874192E+00 -2.800560302409E-01 1.282319654801E+01
 4.961857849106E-01 1.476062984308E-01 3.781635227971E-01 3.895621809146E-01 1.736188759051E+00 -3.724403434395E-01 -1.625810225583E+00 -6.321861726712E-01 -2.475576269027E-02 -1.710457089134E-01 -3.106106796875E-01 8.640744877602E-01 2.268543296205E-01 1.781508983717E-01 7.489036206258E-03 -1.198650670729E+00 -2.046894701334E+00 6.009214023463E-01 1.370841188980E+00 -1.080867395893E+00 6.521742181779E-02 4.286463042867E+00 -1.059960483807E+01 5.555964049443E-01 -7.705170353022E-01 2.529715769582E+01
 -4.061403610402E-01 5.264283102420E-01 1.967938967303E-01 1.232352249317E+00 5.866063039472E-01 7.633538288211E-01 -1.613547536140E+00 -5.730144951099E-01 -3.328534958005E-01 7.842562086157E-01 -2.764759910727E-01 2.281587248365E-01 -8.842417788905E-01 1.170968742621E-01 -1.769396691881E+00 -3.750327879558E-01 -3.507460233292E-01 4.319987482788E-01 1.275673830060E+00 2.408150648465E-01 1.257878632451E+00 6.391598759108E-01 -1.477769682704E+00 9.228392383596E-01 7.533132467244E+00 1.015365435485E+01 1.982560652497E+01
 7.882205722390E-01 -5.312235533706E-01 -2.696070206874E-01 -7.086811867115E+00 8.486311950630E+00 4.428576931844E+00 -9.491508223374E+00 -1.904055722720E+00 3.052272471080E+00 -1.940897917013E+00 -1.289001551005E+00 5.345080879278E-01 5.152694467065E-01 5.135186931483E-01 3.489350527896E-01 -2.212140468091E-01 1.187326674108E+00 -1.399228480754E+00 -6.955962098917E-01 -9.954397781001E-01 8.424124645747E-01 -5.267797904770E+00 6.650009040199E-01 -5.930451486426E+00 -2.441437725011E+00 -1.369857195671E+00 -5.344461113700E+00 4.616354943047E+01
 -2.317778990226E+00 6.052599730515E-01 -2.194617764046E-01 1.127446605812E+01 -1.741240660233E+01 -7.881426382045E+00 -1.667491141931E+00 -9.284946736594E-01 1.728378082580E+00 3.159287341494E+00 -9.210042782562E-01 3.989285422375E-02 -9.678476914214E-01 1.591176904623E+00 2.973587857522E+00 1.172644549373E+00 -2.165165049164E+00 1.145761724353E+00 -1.863411590220E+00 2.647173400515E-01 -1.771306712465E+00 2.066514568297E+00 1.600868648555E+00 2.838442648433E+00 -1.146157708234E+00 -9.852066670712E+00 -9.304430765261E+00 -5.089157835772E+00 6.625423431732E+01
 -1.994053280989E-01 -1.298643660970E-01 7.514251469045E-01 3.628854796194E+00 -5.590451314740E+00 1.419801986631E+00 4.268165810170E+00 1.814702286971E+00 -4.408832651631E+00 1.700434162411E+00 2.231562163587E+00 -8.937248789787E+00 1.107299175600E+00 -3.116247043509E-01 2.642768268909E+00 -3.809069047980E-01 1.868648127061E+00 -2.586347481766E+00 1.150698845762E+00 8.098879179135E-01 -4.468946636928E-01 -4.778049459582E+00 1.621042857259E+00 -7.763117817323E+00 -1.925547215043E+00 -1.033764142006E+01 -1.393495769692E+01 4.790514450177E-01 1.560300299135E+00 4.968366475504E+01
 -1.074780135135E+00 -4.181848523741E-01 3.544898964442E-01 3.181816546828E-01 1.271311713415E+00 -2.257245842953E+00 -5.206648200646E-01 6.827169311261E-01 -1.131071454903E+00 7.172400359964E-01 -9.302913407085E-02 7.619923495812E-01 -6.954577312850E+00 -3.713832184047E+00 2.805515862228E+00 -6.897268150315E-01 -8.486345628167E-01 -5.709952476513E-01 2.680639835208E-01 -1.654395974528E-01 5.123265169305E-01 -7.647275938155E-01 1.880678461248E-01 8.004158199720E-01 7.020927452874E-01 3.801737639493E-01 5.306679758365E-01 3.740238772202E-01 4.885869994450E-01 5.129800471251E-01 2.004703460639E+01
 9.861013228646E-01 1.097724569619E-01 -3.630027687619E-01 9.841817252388E-01 1.814599359252E+00 1.736153968501E-01 4.209284389914E-01 -1.387035242890E+00 -2.300211135637E-01 -1.153238829895E-02 -1.324799890005E-01 3.745447367459E-01 -3.618181645373E+00 -1.323882970166E+00 2.280149144810E+00 -1.428937034930E-01 -1.432091235657E+00 5.307892862929E-01 -3.170987144196E-01 4.027907126223E-01 -3.235650305108E-01 -3.160707299962E-01 4.205613013645E-01 -5.920261798851E-01 1.308738068015E-01 -1.594629042511E+00 -2.028756509352E-01 -1.079057267486E+00 1.807275546095E+00 4.053133039523E-01 6.838169360159E+00 1.710942567526E+01
 7.358596805388E-01 -3.035948948727E-02 -1.313212853140E-01 1.175947415652E+00 5.995676498670E-02 1.987035836340E+00 1.867029379443E-01 1.013093772726E+00 -4.347066694463E-01 -8.768657545979E-01 1.002407683460E+00 1.634380709214E-01 2.834221773282E+00 3.274739991856E-01 -7.497182610000E-01 -7.692280290470E-01 -1.126759894374E+00 -1.194260794514E+00 -7.968215482370E-01 2.008646674141E-01 -2.956203423920E-01 3.496687501460E-01 -8.023738657452E-02 1.930570797224E-01 4.828041663346E-01 -3.450625407163E-01 5.771559064833E-02 1.193719930548E-01 -2.288622999584E-02 5.267574004579E-01 4.843575845376E+00 6.261367351895E+00 2.241971419785E+01
 -6.386316869808E-01 -7.421990454916E-02 -8.013887204424E-02 -6.136752439177E-02 -2.273767286569E+00 1.346466753190E-01 -6.610225228471E-01 2.257624849999E-01 3.930203752700E-01 4.010052610766E-01 2.190721982654E-01 9.497580893393E-02 1.195605837193E-01 3.781891794539E-02 -5.762229886728E-01 -3.369487428962E-01 4.884948963483E-01 -5.966336611150E-01 -8.736825688045E+00 -3.475146481538E+00 -1.309616643005E+00 1.237177782059E-01 1.231530552881E+00 2.166436775225E-01 3.372695289636E-01 -4.907508118315E-01 7.525526076665E-01 -7.569576292344E-01 1.075383933773E+00 -1.472931445682E+00 -1.235295422740E+00 8.428763370734E-01 -1.500181415940E+00 1.707320070785E+01
 -2.254462508432E-01 1.299363952956E+00 1.091522821792E+00 3.058119873738E+00 5.335908775404E-01 6.663152142337E-01 2.188796632893E-02 -1.933644282144E+00 1.207378605084E+00 5.592331812846E-01 -1.008055173866E+00 -1.417860986024E+00 -1.357824721938E+00 9.401853329644E-01 -1.252991924206E+00 1.465505380322E+00 2.374094582807E-02 -2.708117152538E-01 -1.188856179094E+00 -2.134321987566E+00 -3.851106013114E-01 1.603175071667E+00 4.626200534054E-01 4.464149121557E-01 1.877303746119E-01 5.113371784657E-01 2.092675377284E+00 -8.257007744231E-01 -2.255725577969E+00 -8.862408822661E-01 6.718231804570E-01 -2.554271213640E+00 -8.568076295909E-01 4.987005595612E+00 2.443643648839E+01
 2.550705686286E-01 5.003511126946E-01 -1.012582656071E+00 -1.963046483669E+00 -6.737810374968E-01 7.299414143887E-01 9.013984490857E-01 -3.086729038638E-01 -1.601140585278E+00 -4.984080640471E-01 1.277432010681E-02 1.473087058261E-01 1.297569682632E+00 8.334829310781E-01 -7.097298482748E-02 7.778346267867E-01 -2.498150516530E-01 -9.057703022960E-01 -2.626114261509E+00 -1.927651760900E-01 -5.564400646584E-01 -4.458840386922E-01 -1.285682657280E+00 4.738805404653E-02 -1.660796853600E+00 -1.056499412560E+00 -2.461565237050E+00 5.529339139375E-01 1.221525249367E+00 2.546344670642E+00 -6.538596811595E-01 3.720839898789E+00 -4.227248060236E+00 -2.834838553083E-01 -9.185798190874E+00 1.603088441110E+01
 8.160145843891E-01 -6.416335968971E-01 -1.774006442591E-01 -1.551947837760E-01 7.181590342867E-01 -4.622885316622E-02 -5.828768724207E-01 3.883593137371E-01 1.009415934587E+00 -1.617430577368E+00 -1.500944104527E-02 1.356019437036E-01 -8.019749021474E-01 7.351774687195E-01 -1.121949054758E+00 -8.593775241777E-02 -9.096070440330E-02 2.004737860159E+00 -4.311630688439E+00 3.108494167904E+00 1.179329047149E+00 -7.372409844656E+00 -3.386930766457E-01 6.157941469729E-01 -1.230183185003E+00 -4.591138553930E-01 4.318057758095E-01 -8.909765402517E-01 -2.837117143610E+00 2.735889970282E+00 4.998839956091E-01 9.641939687598E-01 -2.893987492326E-01 -5.672332127853E-01 -7.651794147193E-01 -1.116278148414E+00 2.583332379798E+01
 -4.082863515198E-01 -1.459130996565E+00 1.269878849196E-02 1.060962720838E+00 -1.457972102273E+00 -2.918807105051E-01 -5.682727473487E-01 2.234009248821E-01 1.275930551259E+00 -3.584681998083E-01 6.734061711035E-01 5.647206362756E-01 6.693409137700E-02 -1.943402025504E+00 -2.289646274318E-01 4.147860890700E-01 7.452906226123E-01 -1.115693873963E+00 5.217652848340E+00 -5.041969820210E+00 -1.002196599001E+00 -1.349486550560E+00 -6.664924794897E-01 1.128588783412E+00 -8.667385183747E-01 -1.377486722580E+00 1.354433248809E+00 -3.012674060368E+00 -2.330418511553E+00 2.852110129745E-01 -5.196043967910E-02 9.510593792262E-01 -1.130910140710E+00 7.856652697697E-01 -2.611850908557E+00 -1.653895788190E+00 -7.791968913152E-01 2.268650085765E+01
 -7.929915553766E-01 -7.015453107702E-01 -1.650580229724E-01 -8.528092447753E-01 3.304813574663E-01 1.579789910421E+00 -4.078758772182E-01 -5.753959519835E-01 1.604098285255E-01 -3.299075548147E-01 -1.226905328162E+00 -1.952830119296E+00 5.706803926446E-01 1.142447840553E+00 -1.456642575453E-01 3.423604865130E-01 3.148251222394E-01 -3.925073019880E-02 9.067459459767E-01 -2.585532161421E+00 -1.854228401687E+00 9.706874330892E-01 -2.950292249360E-01 -7.989405779814E-02 -3.728503667237E-01 1.237958051163E+00 2.662408901365E-01 6.458509245918E+00 6.310698721372E+00 -8.227563465471E+00 6.849266378613E-02 8.795414499415E-02 -1.903548232917E+00 1.313229096137E+00 -4.210914964444E-01 -1.597735577171E+00 6.064347295303E-02 -2.101703062284E+00 2.762094005103E+01
 -1.683411410786E+00 1.142777335999E+00 -5.506247950135E-01 -1.671831522598E+00 1.974017556850E+00 -2.859688752023E-02 6.971846649825E-01 6.568507108570E-01 1.454859577545E+00 -6.516156003450E-01 -1.170742405078E-02 -1.202248858379E+00 7.393634505564E-01 -1.430038747892E-01 -1.255916549815E+00 -1.452781597716E-01 -1.817374833334E+00 -3.616263468847E-01 -1.864943678216E-01 -2.157634609073E-01 8.478374987891E-01 -7.477523705229E-01 1.892598467690E+00 2.176965460550E+00 -5.054267840506E+00 -1.195471802424E+00 -1.646009243406E+00 -1.395359890495E+01 5.679768854703E+00 2.237791436122E+00 8.966945548380E-02 -6.371408157292E-01 6.420862892304E-01 4.202692420513E-01 6.753507578480E-02 2.909384047233E-01 -1.907135704612E+00 2.025387472982E+00 -1.449029770020E+00 2.987256041367E+01
 -1.529478481078E-01 -1.239737178733E+00 5.179314870626E-01 -1.065641852858E+00 -2.145661621088E+00 1.296993427715E-01 3.967076316378E-01 1.315041267528E+00 -6.342820833838E-01 -1.376193605364E+00 -7.926662951652E-01 -5.380093814388E-01 3.371097999441E-01 1.485027168316E+00 -4.499537062420E-01 9.034234294149E-01 -4.185538870816E-01 1.258043664629E-01 6.028772192687E-01 -4.876431275929E-01 -9.991341798096E-01 -3.997595044388E-01 -3.536614513327E-01 -1.656436415493E-01 -1.958967449141E+00 -2.032419146408E+00 -2.058443029436E+00 8.732628652076E+00 -2.461557299523E+00 -9.402573693861E-01 -4.916919340432E-01 -1.258424016912E+00 2.357040873041E-01 3.662955545065E-01 -1.257502771457E+00 -2.451893678634E-01 1.198698343678E+00 -4.773526201019E+00 3.672043812774E+00 -3.644459035320E+00 2.265900705445E+01
 7.381056785489E-01 -9.810722245424E-01 -6.552637857983E-02 -1.677307707468E+00 6.993318265223E-04 -1.071505551426E+00 -4.086055909769E-01 -1.347560688019E+00 1.294447943177E+00 9.234537578778E-03 -6.060054985734E-01 1.834073020002E-01 7.903940435551E-01 -3.324642048098E-01 6.084820541243E-01 1.204896384408E+00 3.915937195335E-01 -1.506562813518E+00 -7.015011337041E-01 -3.003617831142E-01 3.357873676055E-01 7.105050662973E-01 5.027725568500E-01 4.284372112941E-01 -5.508456990564E+00 3.915313702133E-02 -2.922736210537E+00 5.779858672746E+00 -1.763397303714E+00 -1.019311447210E+00 -5.213092247448E-01 -4.053433600891E-01 -7.856899741636E-01 -5.725004661884E-01 -4.466056940687E-01 1.105858683101E+00 -1.007700513109E+00 3.175511952139E+00 -2.626371322654E+00 -2.392996616179E+00 2.286773397350E+00 1.700426347109E+01
 -6.458318379717E-01 1.024514998929E+00 9.122536384975E-01 1.021164904738E-01 1.252476477390E+00 -3.563693651242E-01 -6.195900081556E-01 -1.008184721582E-01 -4.971142402369E-01 -1.532390905922E+00 3.217799588899E+00 1.882996301461E+00 1.029052956540E+00 -8.986668374316E-01 1.113142441304E+00 -1.263789857725E+00 6.574922289974E-01 -2.615619449904E-01 -6.455248003037E-01 -7.375181999298E-01 -2.139138283127E-01 5.279942602193E-01 -3.892336683663E-01 -4.031106694167E-01 -1.225335298245E+00 9.612715875768E-01 -1.734973953913E+00 4.594385889728E-01 7.638144893989E-02 2.425042730776E-01 2.564105659915E-01 -6.450796679843E-01 -5.620178930859E-01 -7.706397449806E-02 -1.847794230444E-01 4.016890304223E-01 1.563377971627E-01 -1.027431534505E+00 -2.550420660784E-01 -3.631095783033E+00 -3.531128973343E+00 3.582943090889E+00 9.766561213021E+00
 7.498944544782E-01 -1.011006642715E+00 -4.068685652611E-03 -1.157807498231E+00 4.839485858552E-01 -1.016823854619E+00 -3.289798457301E-01 3.275871909624E-01 4.279039114861E-01 1.263541159473E+00 -7.942569990268E+00 -3.690174504950E+00 4.257285782553E-01 5.495372023387E-01 8.761989144901E-01 -7.517410742509E-01 1.477048278243E-01 -1.151932317962E-01 9.647047237777E-02 -2.424262507026E-01 -9.199739408408E-01 -1.519765911891E-01 8.202345377755E-01 -1.021761555352E+00 -2.156306233693E-01 1.271466480021E+00 -1.276474811173E-01 2.028825750248E+00 -1.760956608208E+01 8.119320082881E+00 8.216004963435E-01 -7.921864118311E-01 -2.747142918321E-01 1.862004628417E-01 1.050804000540E+00 -2.802088916241E-01 -3.061055021337E-01 -2.573718324740E+00 1.735915731579E+00 -2.384735066640E+00 -6.547790543695E-01 1.585973342350E+00 5.285617025353E-01 3.035422886925E+01
 1.657949754122E-01 -1.075977537658E+00 -5.948647439741E-02 7.091398537072E-01 -1.311157227133E+00 -2.774550386558E-01 2.305715761228E-01 9.484339634708E-02 -8.484645404441E-01 1.340872704324E+00 -5.414418515295E+00 -3.138585773555E+00 3.517811352109E-02 3.609597086925E-01 9.949693266096E-01 2.248147589371E-01 -5.389150995987E-01 -2.846490914361E-01 1.445899502731E-01 7.930895679104E-01 -8.735645227985E-01 -1.262609357316E+00 1.505245283706E+00 4.021457516161E-01 3.312238671414E-02 9.428770410926E-01 -4.248430264518E+00 2.301581140256E-01 9.435248970931E+00 -3.920051757550E+00 3.583003742111E-01 -3.978439974731E-01 1.500227760662E-01 -4.779894907380E-02 -1.345039368059E+00 1.267028679937E-01 -1.288932456578E-01 1.259788200945E+00 -6.503754496237E-01 1.852118812883E+00 3.552117622831E+00 -2.936179488541E+00 -4.322175669023E+00 -5.270446421449E+00 1.770523070839E+01
 3.211965089379E-01 7.045088342565E-01 -1.239267584449E+00 2.903269317426E-01 -2.986639579976E-01 -2.061741340630E-01 -9.068232895101E-01 7.993411011348E-01 -1.156666222086E+00 -8.951051033125E+00 -1.289627930121E+00 2.951876513502E+00 -5.401254204196E+00 4.367566857962E+00 2.577409372693E+00 4.704807439150E-01 7.098903574800E-02 -2.626022736748E-01 -1.627362481363E+00 1.223989343183E+00 1.288164641433E+00 -1.033355013791E+00 7.088780564697E-02 7.857871459775E-01 -2.059131989163E-01 -6.695798851038E-01 -2.411324266940E-01 -4.916438076608E+00 -3.467370967322E+00 -4.648671910750E+00 -7.546904384672E-01 -3.938019659239E-01 9.257447046813E-01 2.724942774640E-01 -3.168799922036E-01 1.680291207149E-01 -2.379009462773E-01 -1.076888203704E+00 -8.457113148969E-01 -5.941742093305E-01 2.860585974471E+00 -1.538354673710E-03 -2.259032598831E+00 -3.429448791862E-01 -4.615657358945E-01 2.634667280727E+01
 1.369787011604E+00 -2.716124563492E-01 -1.064366387659E+00 4.099408234744E-01 -8.759241727735E-01 1.789231291978E+00 5.285897974873E-02 2.160032158239E+00 -5.811501767731E-01 -1.244441632629E+00 -1.271844540510E-01 3.425740628842E-01 4.767661123272E+00 -6.063730509998E+00 -3.498392959909E+00 6.725406841666E-01 6.128465522078E-01 3.794737407196E-01 -9.307826743215E-02 -9.359788809573E-01 -2.281568308494E-01 -1.066717489326E+00 -1.491553488000E+00 -2.822726118006E-02 -9.737601786773E-01 4.251424884486E-01 2.958778455886E-01 -6.124316289142E-01 -1.251612763508E+00 -7.813992658417E-01 -9.563625995125E-01 -2.998658551863E+00 1.156147284647E+00 3.646158372605E-01 -2.096054091498E-01 2.542465521021E-02 3.256240848762E-01 1.139263626411E+00 -8.686793257738E-01 2.118531901830E+00 -3.522549952658E+00 -3.871772252362E+00 -1.251003248580E+00 -1.878451053317E+00 -1.293175332983E+00 -1.703828254688E+00 2.116633391726E+01
 -3.603067017270E-01 1.323390698690E-01 3.965100717751E-01 2.455457369887E+00 -2.264233917052E+00 -4.124970341602E-01 -1.766019819710E-02 2.563542828573E-01 4.920391609378E-01 2.431189088588E+00 1.229296155400E+00 -3.903324949959E-01 1.120043524825E+00 -3.458602407799E+00 -1.629965089012E+00 -1.217984773221E-01 2.523235095939E-01 5.171530251048E-01 -1.502712845891E+00 -2.650646071586E-02 -2.959206774527E-01 3.944314478871E-01 1.372502217708E+00 -8.078548873864E-01 3.605751532773E-01 -3.827728715493E-01 7.409337800711E-01 -7.811965779514E+00 -1.548488924795E+00 -7.306063330088E+00 1.685945203073E+00 -1.275653232825E+00 2.593695980980E-01 6.217687545226E-01 1.010430799095E+00 -1.689482515973E+00 -8.259538725882E-01 2.055999709838E+00 -6.125766520534E-01 3.444838909676E-01 -4.021802769257E+00 -6.896247196212E+00 2.149190137979E-01 -7.353815999762E-01 -7.560076898051E-01 -4.901583281584E-01 1.710414245915E+00 2.647485686505E+01
 -2.380752686994E-02 -1.057823613689E+00 -1.913664061035E+00 -1.583153987047E+01 1.101109033108E+01 -9.093459046003E+00 -1.765613338140E+00 -5.530516713841E-01 3.070015121588E-02 -1.200987982099E+00 -3.696135016965E-01 7.279339476836E-01 8.588752829551E-01 5.842063193337E-01 -6.984621264325E-01 -1.956374362383E-01 -5.782391384795E-01 1.123757511831E+00 -7.913264840594E+00 -8.235903525686E-01 2.857992114507E+00 -2.617951183883E+00 1.072268878803E+00 2.300111847943E+00 -1.186254995537E+00 4.366396491761E-01 -6.969693868852E-01 1.172886492832E+00 -8.893240158717E-01 -1.919115182000E+00 -5.174591569083E-01 1.046951219992E+00 -4.030540485719E-02 -1.074167391911E-01 -1.495052174688E+00 2.310436092392E-01 8.261119431197E-01 -1.860570602187E-01 -3.210470711455E-01 5.141838375390E-01 1.070728707116E-01 -1.738792912066E-01 -3.671366210766E-01 5.443460905709E-01 4.040008857760E-01 1.363398846864E+00 1.947494223072E-01 1.129981818695E+00 2.820474216440E+01
 -3.085434280930E-01 -1.265460218864E+00 1.529560970068E+00 8.408958556729E+00 -6.503723570555E+00 5.456764980110E+00 1.470410638627E+00 -3.267614806575E-01 4.477998206635E-01 -2.519539030588E-02 8.606569547965E-03 -2.067735847698E-01 1.509479008156E-01 -2.276763467512E-01 -3.415155413694E-02 1.332371641738E+00 1.537184883864E+00 -8.815777652531E-01 -2.687750894965E+00 -8.424079592047E-01 1.842698984115E-03 2.699916577866E+00 -3.404420349975E+00 -1.824370910001E+00 2.250397938245E-01 -6.956281374023E-01 -1.367200144045E-01 1.644491142997E+00 -2.438471565013E-01 1.430635830494E+00 -4.475488197591E-01 -2.992328896842E-02 1.771901420106E-01 2.117883530202E-01 1.517734792741E+00 -1.124831572696E-01 -9.427821384382E-02 -2.521855066336E-01 9.064174572923E-02 -2.232967867882E-01 6.272628169067E-02 1.042066985747E+00 9.438567834690E-01 -6.459705534387E-01 -1.017982197399E+00 -1.606695084890E+00 -9.012469989375E-02 -1.174649388507E+00 -1.031017121336E+01 1.258549433527E+01
 -6.270212800329E-01 8.480442863889E-01 -4.937797144525E+00 -7.927676209434E+00 5.937188711551E+00 -5.117126397738E+00 1.327671600769E-02 -4.746504867651E-01 -1.308072777268E+00 -1.778177743811E-01 1.313303531824E+00 -1.431703901749E+00 -3.638662304360E-01 -1.701689348010E-01 2.366340938896E-01 2.129795230072E-01 7.779161505739E-01 -1.978892598330E-01 1.253667398095E+00 -1.586191281168E+00 -1.239084688933E+00 1.821385217413E+00 -1.977901017959E-01 -1.760138063235E+00 2.460488421794E-01 -9.394023139939E-01 -1.276379372904E-01 -3.226503595855E-01 2.522910386378E-01 2.168939332516E+00 7.799279595921E-02 4.820607234821E-01 -6.732174794019E-01 4.231405998666E-01 -1.393475882228E+00 1.048335596369E+00 6.596728513951E-01 -4.980943701031E-01 1.461788762788E+00 9.746804175078E-01 1.127172176878E-01 -1.102913801782E+00 -2.889546191449E-01 -3.678932799580E-02 -2.077920867216E-01 -1.714808018456E-01 -3.913450630329E-01 1.175851794697E-01 5.684051687260E+00 -4.740175207109E+00 1.446863260265E+01
 -3.597009299889E-02 -9.782028899108E-01 1.159824996595E+00 -2.413764972271E+01 -7.616655528554E+00 2.185949950248E+00 8.829217435951E-01 -4.739581942161E-01 -2.327653079588E-01 2.263263252373E-01 4.846345984329E-01 -7.119517259301E-01 -6.501489871688E-01 1.571512109980E+00 3.536200275584E+00 -9.837987686036E-01 5.883665875377E+00 1.886954341760E+00 -5.800741132999E+00 4.447152196925E+00 -5.729287051322E+00 9.615744681878E-01 1.196706714383E-01 1.299138639248E+00 9.591363128864E-02 -3.892118075337E-01 -1.824598546165E+00 -2.110421051431E+00 -4.128020376145E+00 -4.765953958213E-01 -1.026241308588E+01 -6.387203623191E+00 -7.720315284679E+00 -4.077570517520E+00 -8.096198838840E+00 5.019227392276E+00 -7.767909254496E-01 -1.292535729527E+00 -7.758413081770E-01 -8.543334806449E-01 -6.122052631162E-01 1.687027917473E+00 3.519487564818E-02 4.117640356811E-01 3.534692481643E-01 -8.006457197894E-01 2.777586014036E-01 -3.111975526555E+00 6.605197276127E-02 -5.304365813419E-01 -1.107859443723E+00 6.608516325247E+01
 6.074976279172E-01 3.213286957295E-01 -1.145794058153E+00 -7.903737035945E+00 1.682111656872E+00 3.265240912289E+00 2.017298578635E+00 8.306256693943E-02 -1.288719610341E+00 1.069130311084E-01 2.639454764707E+00 -5.437583589732E-01 6.217471195775E-01 -5.729844980636E-01 -3.864210540401E-02 2.337320289217E+00 -5.358663448029E+00 -2.046560789661E+00 2.475469135676E+00 -2.961428130170E-01 2.035545586458E+00 2.104821151666E-01 -2.223963858223E+00 -8.290156122552E-01 -1.823614062608E+00 -2.287994220174E-01 -7.362505270297E-01 -7.685227847397E+00 -1.359657411962E+01 -1.609155356838E+00 -5.591088736468E+00 -4.468901743474E+00 -3.117590764365E+00 -8.225908280052E+00 -1.223782493302E+01 8.749061796716E+00 -1.015234659320E+00 -1.378404365524E+00 -6.036706202880E+00 -1.351110283551E+00 2.895034579221E+00 1.362753106401E+00 -1.432744583490E-01 -1.871154140009E+00 -3.005460199988E-01 4.237844134382E+00 -4.947124432759E+00 5.142416494878E+00 5.581611169156E-01 -6.439255137915E-01 2.531093051334E-01 1.366013330739E+01 4.104895089205E+01
 -2.008722908702E-01 4.385002016615E-01 1.327474927851E+00 3.488258927392E+00 -5.334390677073E-01 -5.609280718657E-01 -2.005076659397E-01 -5.916541599238E-02 1.124880873601E+00 1.125982451003E+00 4.060376107089E-01 4.808266056038E-01 2.723705721813E+00 -1.528472348544E+00 -7.827549070944E+00 6.830745628349E-01 -9.355803947217E-01 1.225736775458E+00 -1.724730399553E+00 3.091871238723E-01 -4.842898930586E+00 8.681939120895E-01 2.522553001519E+00 2.595902749110E-01 6.358216434507E-02 -1.713017999183E+00 1.870503844854E+00 -2.360099007501E+00 -4.519850043852E+00 -7.478137410733E-01 -1.013460694026E+01 -5.777176722401E+00 -9.147861639152E+00 4.610592165577E+00 9.124781069978E+00 -7.007035831516E+00 1.618750213737E+00 -1.323410232365E+00 -8.138195618172E+00 -2.411023026775E+00 3.944671732175E-01 7.564559176206E-01 9.124450691751E-01 1.166311886241E+00 -1.484099059136E+00 -3.271537006525E+00 4.862256552485E+00 -5.064536817022E+00 1.865622850694E-01 -1.832022621525E-01 -1.224493579014E+00 5.788721669903E-01 -1.896235124196E+00 3.959648951115E+01