#BIOSYM hessian 1
@Type: Hessian Update
@Units
 distance: 	A
 energy: 	Kcal/Mol
#header
@natom 19

#label
L1      L2      L3      L4      L5      L6      L7      L8      L9      L10     L11     L12     L13     L14     L15     L16     L17     L18     L19

#element
Li Li Li Li Li Li Li Li Li Li Li Li Li Li Li Li Li Li Li

#matrix
57
 1.427927718618E+00
 4.580396642882E+00 2.568879765763E+01
 5.303490724154E-01 2.752301019709E+00 8.876021679347E-01
 1.059482498386E+00 3.247440679684E+00 7.585069824830E-01 1.307052422953E+01
 1.842131486221E-01 4.744277208387E-01 1.032738963861E-01 8.327320820287E-01 6.377688009940E-01
 5.028542361727E-01 1.844495234007E+00 3.527677492944E-01 2.946215757294E+00 5.299094364082E-01 1.255515661738E+00
 7.808132501576E-02 2.400942556888E-01 6.467025959004E-02 2.528232172524E-01 2.200107788747E-02 1.193756316051E-01 5.732428438799E-01
 -2.723151980055E-01 -9.171353674404E-01 -1.726108848745E-01 -9.498984588927E-01 -1.194218428968E-01 -3.937794787517E-01 -8.007973171384E-01 3.819420160463E+00
 8.654840753377E-01 3.168172495049E+00 6.211097516048E-01 2.803307100956E+00 3.466187762589E-01 1.143391336571E+00 8.182751606781E-01 -3.572844447560E+00 5.031548705568E+00
 -3.305358394567E-01 -4.222940526114E-01 -2.350549459746E-01 -1.461847879411E+00 -1.829194879888E-01 -6.579762950347E-01 -9.826387782291E-02 3.825582955669E-01 -1.168126523347E+00 5.735013266486E+00
 3.760997977730E-01 1.138507076585E+00 3.392579086286E-01 1.594944630616E+00 2.025489057830E-01 7.038220989559E-01 1.173913809581E-01 -4.152045640281E-01 1.191775671058E+00 -1.784821169470E+00 2.681819381241E+00
 7.716167619134E-01 1.774996728100E+00 5.613494486141E-01 3.136352748641E+00 3.977996296161E-01 1.418037993366E+00 2.022830477500E-01 -8.134189052523E-01 2.426047477305E+00 -6.307296280624E+00 3.882746228154E+00 1.037049071269E+01
 3.838643011915E-01 1.529316610944E+00 4.182384109522E-01 1.393183952630E+00 2.021330361679E-01 5.187638356275E-01 9.809460153955E-02 -3.604582170040E-01 1.011544293161E+00 -6.022640205617E-01 6.002304667546E-01 1.216172193723E+00 2.584257905162E+00
 1.175818181861E-01 -1.114691295342E-01 -2.341937798366E-01 1.860919010315E-01 -2.708341971027E-03 1.263160333705E-01 7.651116037715E-03 -5.114040359613E-02 1.393382093109E-01 -6.830346393210E-02 7.290898779480E-02 1.259462486379E-01 1.334632950261E+00 1.176037823192E+00
 -6.933676296942E-02 -1.175567306864E+00 -5.607725305306E-01 -6.418319706000E-01 -2.262216565820E-02 -3.614325859624E-01 -3.461343067898E-02 1.202788870925E-01 -3.309824327481E-01 2.510117224256E-01 -2.474633098693E-01 -5.227155893502E-01 -1.826143069452E-01 4.688447083460E-02 3.660087475716E+00
 3.723329605603E-01 1.359870166313E+00 2.462204970388E-01 1.009789346070E+00 -1.813626353979E-01 2.467710773854E-01 4.263420328254E-02 -2.924210647387E-01 9.762076954350E-01 -5.114531079347E-01 5.105326870942E-01 1.033568749086E+00 4.218350047857E-01 5.172842611920E-02 -1.451850697293E-01 1.718693995968E+00
 -3.305860349663E-02 -8.399394804913E-02 -3.703624942980E-02 -5.362141431840E-01 -5.104987494104E-01 -4.610336564398E-01 -1.829571181204E-02 7.947645161934E-02 -1.905342698106E-01 6.873899265312E-02 -6.560305551323E-02 -1.389487982873E-01 -7.634910056028E-02 -7.573747511255E-03 3.388133614673E-02 -6.329315882643E-01 2.013722740321E+00
 -6.304139438988E-01 -2.514874438315E+00 -4.311309815425E-01 -2.199769990609E+00 -6.098463561043E-01 -1.053800416953E+00 2.093287128223E-02 4.393435471438E-01 -1.836509517699E+00 8.276019591518E-01 -8.497374529335E-01 -1.711476108637E+00 -6.893598372366E-01 -1.042139396259E-01 2.013053271416E-01 -1.976939074616E-01 1.438373704129E+00 3.472780679774E+00
 -2.511877678315E-01 -9.874528718963E-01 -1.845721357779E-01 -8.398958135465E-01 -1.096286627102E-01 -3.453528297320E-01 -3.976973095490E-01 2.602686191761E-01 -8.063447064566E-01 3.159376238033E-01 -6.997351627990E-01 -1.063555422342E+00 -3.057353139279E-01 -4.006440496377E-02 9.815221858109E-02 -2.448085906809E-01 5.107708727454E-02 3.794938865085E-01 2.332761022067E+00
 -3.289971215445E-01 -9.942646033154E-01 -2.206159101496E-01 -1.154098581413E+00 -1.337070489493E-01 -4.875178202270E-01 -3.814473529896E-02 3.052941549978E-01 -8.260173569536E-01 1.505407411410E-01 -1.921804904670E+00 -2.165891048623E+00 -4.171911207227E-01 -5.030612873644E-02 1.632681982237E-01 -3.476789862388E-01 5.692948518766E-02 5.853239470646E-01 1.829530222492E+00 2.789063078159E+00
 1.907626123887E-01 6.820053009462E-01 1.312490046492E-01 6.656221112438E-01 7.433289207577E-02 2.680027280285E-01 -1.685175573026E-01 -1.303834562357E-01 3.187046412736E-01 -5.596876640146E-01 -9.482001778208E-01 -4.671911880278E-01 2.367153843098E-01 3.272072861809E-02 -8.785495772943E-02 1.902237403965E-01 -2.975948811922E-02 -3.038850664666E-01 7.915207056187E-01 1.172891437454E+00 3.816669526966E+00
 -1.176493093588E+00 -3.027319752386E+00 -7.118848634633E-01 -2.423681689514E+00 -2.876026938741E-01 -9.746177759028E-01 -1.533822006992E-01 5.887178158479E-01 -1.633546198446E+00 1.045018373398E+00 -1.015107810364E+00 -2.288159987025E+00 -8.736129549175E-01 -1.263247487180E-01 2.793081754203E-01 -6.929805437988E-01 1.340330197650E-01 1.067997441071E+00 4.887555673197E-01 7.134321962981E-01 -3.888269954134E-01 4.112553212213E+00
 9.079307404288E-02 8.128784095690E-01 1.104977561394E-01 1.004090264845E+00 1.247767623183E-01 4.154964534792E-01 6.737053900442E-02 -2.551972599229E-01 7.146578686943E-01 -3.620864558014E-01 3.460770413741E-01 1.052269891457E+00 3.678252832197E-01 4.726724840551E-02 -1.418084994289E-01 2.971930621140E-01 -5.475304333097E-02 -4.877651513838E-01 -2.117457622492E-01 -2.949025687888E-01 1.639144431378E-01 -2.034244764776E+00 2.555035195239E+00
 -1.542539550925E-01 -2.524317842739E-02 -5.189928395137E-02 2.267843779275E-01 2.780011766258E-02 1.032931480792E-01 1.137014706988E-02 -5.922622097762E-02 1.784837515399E-01 -1.936733931857E-01 3.028534131657E-01 -6.059607646877E-01 8.872421436975E-02 1.442520113157E-03 -3.922914630128E-02 7.480058362119E-02 -1.290231425127E-02 -1.307410217805E-01 -4.835723086642E-02 -7.418752359480E-02 3.004640586563E-02 8.399489415173E-01 9.567508335139E-01 3.267520215784E+00
 6.951908787732E-01 2.731598421340E+00 4.862319948585E-01 2.191475638620E+00 2.714289726409E-01 8.803826169802E-01 1.431777256661E-01 -5.103891949730E-01 1.460075572420E+00 -9.441902062023E-01 9.510190018787E-01 1.929328087275E+00 4.737401102861E-01 -5.726120686781E-02 -9.508305510360E-01 6.258157462387E-01 -1.183329864903E-01 -9.540270270402E-01 -4.526181845890E-01 -6.420575628958E-01 3.481739027075E-01 -1.241487155973E+00 5.561215012231E-01 1.449560670632E-01 3.371475625548E+00
 1.379399430704E-01 5.227519160731E-01 9.550694120021E-02 4.595225975119E-01 5.492352145646E-02 1.821876825934E-01 2.932301555008E-02 -1.179932660940E-01 3.094577573307E-01 -1.920752774822E-01 1.888309451009E-01 3.870081257473E-01 3.834009345955E-03 -6.395939015910E-02 -4.513368070939E-01 1.289242006184E-01 -2.312358408709E-02 -2.005231638597E-01 -7.675858834002E-02 -1.102108138966E-01 9.184822231391E-02 -2.669059608139E-01 1.188263061075E-01 2.103524487282E-02 1.752818131838E+00 1.415826104772E+00
 -3.826371355841E-01 -1.238465678713E+00 -2.639836495255E-01 -1.381398262797E+00 -1.608206839619E-01 -5.736687198309E-01 -9.140241944214E-02 3.524235159694E-01 -9.864064926273E-01 5.686712619811E-01 -5.631935444856E-01 -1.128659710948E+00 -1.217121199877E+00 -4.605957033413E-01 -1.348690047255E+00 -4.148660477560E-01 6.145371863421E-02 6.825118531700E-01 2.953977063341E-01 4.040546898810E-01 -2.216729863139E-01 8.505923324635E-01 -3.478129409379E-01 -7.467492992466E-02 -3.674308006327E-01 -1.211407306770E-01 3.361018833789E+00
 7.401100243674E-01 2.729792485540E+00 5.216277341177E-01 2.440718615293E+00 3.048704830731E-01 1.003091710587E+00 1.618947152615E-01 -5.785584283832E-01 1.675430894533E+00 -1.002549705560E+00 1.041972097662E+00 2.083263721187E+00 8.845866534441E-01 1.151655692962E-01 -3.012778043059E-01 5.086698673666E-01 -2.604312104891E-01 -1.610734492619E+00 -5.029405494975E-01 -7.298727460674E-01 3.978797445934E-01 -1.416795379893E+00 6.288248555068E-01 1.508343927066E-01 1.293843193764E+00 2.623741439492E-01 -8.466072138427E-01 4.494379144472E+00
 -5.032774493370E-01 -1.735225065721E+00 -3.529503577914E-01 -1.756056670811E+00 -2.134954873783E-01 -7.297068715290E-01 -1.162798155387E-01 4.316397878068E-01 -1.233237696912E+00 7.174072970074E-01 -7.273568299865E-01 -1.457364831717E+00 -6.288734638354E-01 -7.435270774445E-02 2.404031147513E-01 -6.562372815539E-01 1.865317922149E-02 5.490271423972E-01 3.695618847925E-01 5.074812042056E-01 -2.841732425574E-01 1.061160716060E+00 -4.478622517575E-01 -9.069202217763E-02 -9.549291696863E-01 -1.975750675781E-01 5.919804998782E-01 -2.954131340285E+00 2.915051133480E+00
 2.052330361191E-01 8.594404809588E-01 1.449953039361E-01 6.000336759899E-01 7.947672401055E-02 2.422115842285E-01 3.909750320235E-02 -1.269212511975E-01 3.869475045275E-01 -2.538696602992E-01 2.706004815991E-01 5.432120457958E-01 2.142648831391E-01 3.236773498249E-02 -5.704274743754E-02 -3.276768017855E-01 -3.249406681003E-01 -1.403380345632E+00 -1.149164661690E-01 -1.929841300759E-01 9.380789649342E-02 -3.271906207842E-01 1.615712635194E-01 3.407055429503E-02 2.975831924636E-01 5.610528118443E-02 -2.217046958396E-01 1.466167477846E+00 2.053573868908E-01 3.158172049840E+00
 -7.791277282270E-01 -2.782692639982E+00 -5.477979820629E-01 -2.640156510576E+00 -3.258861424850E-01 -1.094914227906E+00 -1.749098786725E-01 6.373173805926E-01 -1.839615470390E+00 1.084210681632E+00 -1.109765257742E+00 -2.218776917488E+00 -9.479380617944E-01 -1.173442235241E-01 3.433972908368E-01 -7.842913616773E-01 1.275419498195E-01 1.242816652605E+00 2.045726766772E-01 5.698788342268E-01 -1.224448166080E+00 1.570795536011E+00 -6.629630341628E-01 -1.591619519252E-01 -1.426108561485E+00 -2.903277254013E-01 9.046886476498E-01 -1.614971147372E+00 1.158327214243E+00 -3.872881823705E-01 4.244275385315E+00
 -1.896015671974E-01 -5.430354402358E-01 -1.342878679961E-01 -7.323390345879E-01 -8.861060187642E-02 -3.169556172814E-01 -4.922290358008E-02 1.880742553722E-01 -5.443901224223E-01 2.812675520359E-01 -2.924164901798E-01 -5.759460833228E-01 -2.668226582391E-01 -2.613167489766E-02 1.205190605437E-01 -2.288010092157E-01 2.730334521596E-02 3.875794252202E-01 -3.624735218799E-02 8.604067310626E-02 -5.880123635856E-01 4.688372213905E-01 -1.840355063632E-01 -3.652084780428E-02 -4.326603709261E-01 -8.482579522130E-02 2.452698554215E-01 -4.721467135485E-01 3.225583463551E-01 -1.310269093659E-01 2.136135240168E+00 1.503505000946E+00
 1.574059206331E-01 7.694939648702E-01 1.119659232381E-01 4.066730187423E-01 5.493977204836E-02 1.534545659857E-01 2.633203289800E-02 -7.748993964360E-02 2.366625371676E-01 -1.913853048234E-01 1.948267707042E-01 4.070717074704E-01 1.413667202674E-01 2.425335272460E-02 -1.344148347561E-02 1.062630073339E-01 -3.055751156094E-02 -1.362613771745E-01 -8.599540793571E-01 -6.030540414704E-01 -1.682233477536E+00 -1.936766578587E-01 1.022533595149E-01 2.989866349699E-02 1.693616273694E-01 2.466809658994E-02 -1.508705888647E-01 2.201254180140E-01 -1.806866734686E-01 4.426685340509E-02 -2.436505309434E-01 -2.393441200725E-01 3.945893851562E+00
 -7.321326616532E-01 -2.701193356991E+00 -5.084805083706E-01 -2.419942305011E+00 -2.923424004297E-01 -9.814465679361E-01 -1.583778061368E-01 5.875427836948E-01 -1.653765565542E+00 1.031591249298E+00 -1.025352902267E+00 -2.080099229428E+00 -8.724680079632E-01 -1.193645700172E-01 2.987805715167E-01 -7.006943460974E-01 1.139067056539E-01 1.080950829165E+00 4.961302597206E-01 7.118936600224E-01 -3.904315052526E-01 1.179288783752E+00 -7.954375138324E-01 -7.303144890794E-01 -1.268084463435E+00 -2.591374423461E-01 8.333237047031E-01 -1.447140014045E+00 1.054894062764E+00 -3.422230149666E-01 1.565659143774E+00 4.506640355727E-01 -2.145088909736E-01 3.320342525490E+00
 2.441733578361E-01 8.559386247220E-01 1.663715590368E-01 8.189358100108E-01 9.758291426342E-02 3.302730859312E-01 5.191809591887E-02 -2.088368598896E-01 5.642708683774E-01 -3.537812561110E-01 3.452112308046E-01 7.066487921607E-01 2.923248446333E-01 4.307235305607E-02 -1.024622431074E-01 2.264974516601E-01 -7.928249863197E-02 -3.908920795590E-01 -1.629518444927E-01 -2.399070654510E-01 1.341010446776E-01 -6.447958522525E-01 1.368901967476E-01 -2.732648809013E-01 4.323969966733E-01 9.862476038488E-02 -2.856994476886E-01 4.818424324435E-01 -3.602414104279E-01 1.062732357951E-01 -5.353504692340E-01 -1.615939913854E-01 7.141290174727E-02 -1.686797344808E+00 2.207809883363E+00
 1.164731123641E-01 5.765197118916E-01 8.049026705273E-02 2.682289306293E-01 3.549396120785E-02 9.466279975852E-02 1.651097086012E-02 -4.977315868066E-02 1.428431610778E-01 -1.311998098555E-01 1.389441176211E-01 2.870887180392E-01 9.859306638264E-02 2.537804537234E-02 3.284056144624E-04 4.575749850875E-02 -4.284634042787E-02 -5.837428727765E-02 -4.372547436672E-02 -8.922649479880E-02 4.432684860002E-02 -6.882952181287E-01 -2.677685111140E-01 -1.257267679441E+00 9.628208255610E-02 3.091273547614E-02 -1.132900454987E-01 1.293194888483E-01 -1.217109144866E-01 1.042171248139E-02 -1.733510035510E-01 -7.122448041139E-02 -4.335764608942E-03 3.916618474764E-01 1.078447731284E+00 2.683915259292E+00
 -2.074174848864E-01 -6.036440874874E-01 -1.495851642405E-01 -7.840480150137E-01 -9.941164436498E-02 -3.419363627918E-01 -5.256245341632E-02 1.960956924033E-01 -5.826301123468E-01 2.902751910856E-01 -3.192454472071E-01 -6.182013508776E-01 -2.943869371879E-01 -2.877866376303E-02 1.236402891824E-01 -2.467709250466E-01 3.690429328135E-02 4.088503259081E-01 1.745138391457E-01 2.349753862429E-01 -1.335098033263E-01 5.022936289677E-01 -2.016094500404E-01 -4.218078995984E-02 -7.914603084550E-01 -8.045010332510E-02 7.165704005698E-02 -4.991494528204E-01 3.588664094935E-01 -1.411421055603E-01 5.435445218733E-01 1.313862395150E-01 -9.078572540717E-02 4.766209443210E-01 -1.674172119316E-01 5.643564630303E-02 1.118087426312E+00
 2.317172804290E-01 1.599923217650E-01 1.859004339031E-01 1.176785311001E+00 1.630739490257E-01 5.773075710563E-01 8.089472710021E-02 -3.109898966721E-01 1.001570542120E+00 -3.177785851764E-01 4.471537726338E-01 7.865102403001E-01 4.828576393775E-01 1.861573272844E-02 -2.602641735742E-01 4.248809203607E-01 -4.928050575757E-02 -7.492945838947E-01 -2.979248457963E-01 -3.776300397901E-01 2.174929078616E-01 -8.757465235188E-01 3.161344525960E-01 4.921763904071E-02 8.650866959017E-01 1.666690188486E-01 -4.105355884877E-01 8.658253420125E-01 -5.647847464818E-01 2.563389901193E-01 -8.917089669908E-01 -1.792229271369E-01 2.175220137581E-01 -8.620590608628E-01 2.971543211514E-01 9.568802814626E-02 -2.157991829095E+00 7.711274152216E+00
 -7.477421671271E-01 -2.213712800049E+00 -5.466426319643E-01 -2.798039307841E+00 -3.643734798959E-01 -1.231558320095E+00 -1.887426980659E-01 6.839529143039E-01 -2.081422291340E+00 1.012162215661E+00 -1.148807308361E+00 -2.206135439915E+00 -1.056860522563E+00 -9.714120747940E-02 4.401445653945E-01 -8.850744355447E-01 1.381675367839E-01 1.459312992447E+00 6.269685393232E-01 8.525562542994E-01 -4.740150768673E-01 1.788018008557E+00 -7.200389329697E-01 -1.532374017208E-01 -1.875030005697E+00 -3.292805900880E-01 8.576349306000E-01 -1.820639612778E+00 1.266821730999E+00 -4.757099754374E-01 1.939084535863E+00 5.039325627791E-01 -3.446081620438E-01 1.927867851633E+00 -6.595416637859E-01 -7.385114286384E-01 2.399519387919E+00 -7.606750127645E+00 9.003640718423E+00
 1.873235249554E-01 3.208201765575E-01 1.372043978395E-01 7.980084911814E-01 9.996316201213E-02 3.539919556273E-01 4.890045090228E-02 -2.261626277204E-01 6.267396567575E-01 -2.759814107230E-01 3.242194657165E-01 6.200284656621E-01 3.292958553126E-01 4.845436251734E-02 -1.326839087300E-01 2.689934307008E-01 -3.742425082401E-02 -4.320070834895E-01 -1.823794397801E-01 -2.459390906345E-01 1.601600777931E-01 -5.618720664272E-01 2.343195436118E-01 4.364115724517E-02 4.862753220868E-01 7.307865975328E-02 -3.276813397966E-01 5.107725290596E-01 -3.459293523492E-01 -7.266454047256E-02 -5.729968863707E-01 -1.530973195361E-01 8.668894522376E-02 -5.485469761235E-01 1.908045175116E-01 6.301810068677E-02 -1.628887202792E-01 1.738928356977E-01 -5.264258602502E-01 3.317453842323E+00
 -6.596665916806E-03 1.585887197883E-01 -6.683255353953E-03 -1.157829307958E-01 -1.344176949047E-02 -5.935331791336E-02 -5.996469208659E-03 4.578568452644E-02 -1.173913828221E-01 2.319504981091E-02 -3.936771709817E-02 -6.526534609680E-02 -5.956678430360E-02 -9.713824422779E-03 3.299065613295E-02 -4.957999858571E-02 3.817780306097E-03 8.754898239743E-02 3.224490474841E-02 3.606094908804E-02 -3.280890404146E-02 1.136437804752E-01 -4.326348928601E-02 -3.731939462234E-03 -1.367540959252E-01 -1.823613089685E-01 -7.437813524189E-02 -6.828316928942E-02 2.612207077622E-02 1.714608528083E-01 9.434776658675E-02 2.575675669576E-02 -1.967855348607E-02 1.071076562836E-01 -3.497521844212E-02 -2.374363304118E-02 3.597501291282E-02 -5.048102909560E-03 4.973597490919E-02 -1.353151572419E+00 8.148041951693E-01
 -1.011530326219E+00 -3.339023556640E+00 -7.201919254895E-01 -3.539267184398E+00 -4.439180385482E-01 -1.489040133136E+00 -2.308677570815E-01 8.715109089341E-01 -2.518744073885E+00 1.392977854182E+00 -1.488070644730E+00 -2.943218292171E+00 -1.318034879289E+00 -1.715574308212E-01 4.772404958507E-01 -1.075751311058E+00 1.813503778138E-01 1.702001995077E+00 7.554228640239E-01 1.056237896088E+00 -6.047264707306E-01 2.172601735574E+00 -9.285776592382E-01 -2.124595177797E-01 -2.001471108923E+00 -5.384752646658E-01 1.147631781940E+00 -2.454979373254E+00 1.813067939378E+00 -1.454669937110E+00 2.393834757993E+00 6.748350832313E-01 -3.452622857366E-01 2.180563779965E+00 -7.352247205021E-01 -2.198014196025E-01 7.195055552800E-01 -1.135663854364E+00 2.597877915317E+00 -4.369341192788E+00 1.693903145685E+00 9.148891481949E+00
 -9.238814184559E-02 -3.433929320608E-01 -6.509305497641E-02 -2.952434811183E-01 -3.706909303234E-02 -1.192100825079E-01 -1.900676296238E-02 7.068236833915E-02 -1.999479179880E-01 1.228906681257E-01 -1.297695996547E-01 -2.607516230348E-01 -1.103168357519E-01 -1.775070040438E-02 3.086520415730E-02 -8.605164678425E-02 1.700896292939E-02 1.293450609632E-01 5.886999925438E-02 9.187973942247E-02 -5.196231204571E-02 1.719831019666E-01 -7.837354881854E-02 -1.937672721687E-02 -1.469199363166E-01 -3.549802164974E-02 1.086739370578E-01 -2.768984467445E-01 8.457232654459E-02 -8.424291000703E-02 1.887961147358E-01 9.769793289503E-02 3.042078096975E-02 1.779066797165E-01 -5.689281936926E-02 -1.325933372687E-02 6.648667771552E-02 -1.068659124968E-01 2.279816541222E-01 -6.480335529354E-02 4.691666210197E-03 2.619952710087E-01 3.322381867245E-01
 -2.465911494220E-01 -8.546835650158E-01 -1.664743798372E-01 -8.187206643125E-01 -9.320562333517E-02 -3.176830884671E-01 -4.968583311251E-02 2.163925264740E-01 -5.543760584472E-01 3.667049452025E-01 -3.508385045651E-01 -7.279984414722E-01 -3.063973313349E-01 -5.956977680793E-02 8.931262813077E-02 -2.385119138456E-01 4.622663323733E-02 3.510663710240E-01 1.579939725128E-01 2.493674641248E-01 -1.441700916630E-01 4.885784750309E-01 -2.294812957137E-01 -5.618930794089E-02 -4.113881704542E-01 -9.287997236253E-02 3.013023781528E-01 -5.432954748369E-01 3.459242038461E-01 -1.238285650809E-01 5.754822882869E-01 9.409921346454E-02 -2.050220088779E-01 4.867523290922E-01 -1.761201581137E-01 -3.305844026247E-02 1.684703246222E-01 -2.832201796801E-01 5.738674812098E-01 -2.057706824094E-01 5.401106408487E-02 7.434991272490E-01 9.719435588779E-01 5.059946944630E+00
 -1.993789872825E-01 -7.653934909506E-01 -1.408576206476E-01 -6.362412398699E-01 -8.074775857069E-02 -2.604987432869E-01 -4.206082731064E-02 1.469131268368E-01 -4.306951026683E-01 2.637423803441E-01 -2.760162064915E-01 -5.526018361231E-01 -2.297309979044E-01 -3.126113484550E-02 7.248252924722E-02 -1.853612940415E-01 3.511359038360E-02 2.833834686214E-01 1.304980520823E-01 1.914563264898E-01 -1.027273665903E-01 3.652868055936E-01 -1.609532790606E-01 -4.114210446236E-02 -3.289096445083E-01 -6.642907690957E-02 2.247952874718E-01 -4.220703093177E-01 2.607556402973E-01 -1.036838897763E-01 4.696467078494E-01 3.090761727002E-03 -2.394855182388E-01 3.702184872098E-01 -1.250740972524E-01 -2.845913855178E-02 1.405629149829E-01 -2.230455820594E-01 4.914255984980E-01 -1.344820712928E-01 3.337070174900E-02 5.702191280382E-01 1.273666887792E-01 7.355681898233E-01 3.866698290253E-01
 -7.299101421620E-01 -2.553217808316E+00 -5.150721257273E-01 -2.497369121476E+00 -3.102686883602E-01 -1.038939294937E+00 -1.646169430802E-01 6.074206828392E-01 -1.750255362310E+00 1.011949862109E+00 -1.051395119424E+00 -2.097919144560E+00 -9.129838384093E-01 -1.116208288465E-01 3.297772140530E-01 -7.440153963053E-01 1.290960894768E-01 1.181929838340E+00 5.219782686344E-01 7.503322201868E-01 -4.090113844592E-01 1.498169428837E+00 -6.422769420546E-01 -1.466850934182E-01 -1.351317319159E+00 -2.595258831783E-01 8.637713673352E-01 -1.529249199080E+00 1.101818167006E+00 -3.722130010774E-01 1.597387303456E+00 5.061406514719E-01 -4.129731163735E-01 1.452684939167E+00 -6.319742007744E-01 -2.470134540534E-01 4.381770224115E-01 -8.556067993880E-01 1.817455615465E+00 -5.437666628075E-01 9.317676281848E-02 2.266826920192E+00 1.896319315231E-01 5.033104497810E-01 3.960535359757E-01 7.659448774381E+00
 6.135123689719E-03 5.523366666296E-02 1.594085420034E-03 -6.088376995675E-04 -2.841068133989E-03 -7.888599479718E-03 -5.307517708809E-04 -1.148872024917E-03 -1.179827209916E-02 -1.299229580414E-02 2.566906505573E-03 1.320494041096E-02 -2.482867678292E-03 3.910619703428E-03 8.280392825930E-03 -5.545663735165E-03 6.153023077252E-05 1.270014705745E-02 5.722559142411E-03 3.682600370798E-03 2.422641599711E-03 9.003881294800E-03 3.486709392948E-04 1.021043773362E-03 -1.980573009306E-02 1.647161073471E-03 -3.621223597546E-03 -1.054143563653E-02 1.044161206870E-02 -8.408539746240E-03 5.363106591038E-02 -2.729471647464E-02 5.646111496199E-02 -1.029751945526E-01 -1.797658740385E-01 -1.283876773475E-01 -3.788736164077E-02 -7.452462053883E-02 6.705019357434E-02 9.530367254397E-03 -3.052279848782E-03 1.053285895636E-02 1.025061101701E-02 -4.139930585011E-03 4.634889004316E-03 4.364153617559E-01 2.886250099124E-01
 -2.415109678717E-01 -8.917485186936E-01 -1.673963074832E-01 -8.077905566365E-01 -9.649741150054E-02 -3.275666191478E-01 -5.308817354966E-02 1.960351060609E-01 -5.521795891470E-01 3.479177549829E-01 -3.399350264102E-01 -6.910248150372E-01 -2.878774045446E-01 -3.800662208190E-02 1.004787811473E-01 -2.326532714856E-01 4.104703807214E-02 3.705127230783E-01 1.654497425663E-01 2.326557515064E-01 -1.299248088747E-01 4.715741016101E-01 -2.037444941773E-01 -4.776505606455E-02 -4.202576715232E-01 -8.379440699605E-02 2.750246401607E-01 -4.850609416316E-01 3.459870358196E-01 -1.155916697708E-01 3.880298158641E-01 2.331733342098E-01 -3.422672656364E-01 3.992747639806E-01 -3.009735575842E-01 -1.492549517386E-01 1.884953862329E-01 -2.235710548011E-01 5.415478375513E-01 -1.745086694020E-01 3.795669639196E-02 7.364616901932E-01 6.240809813618E-02 1.730805418808E-01 1.260039117221E-01 1.398270506616E+00 6.379765682310E-02 6.448830414803E-01
 -5.926379510421E-01 -3.125285147299E+00 -2.133512702054E-01 -8.722832106108E+00 -7.795556127922E-02 -9.650575830566E-01 -1.736692093632E-01 6.202244448223E-01 -5.265344315326E-01 -5.509211298387E+00 1.688687095248E+00 6.091878319850E+00 -2.919075600079E-01 -2.171974816398E-01 7.610038277651E-01 -4.429963823036E-01 6.993279687014E-01 5.341870485548E-01 -1.308232507566E+00 -9.963137039334E-01 2.703891025501E-02 -1.612251676267E+00 9.669841493859E-01 -6.534110819775E-01 -4.593703994649E-03 6.846744667240E-04 -7.753019460601E-02 3.784160444379E-02 -6.657551853877E-02 -2.012814831356E-02 -7.488509127006E-02 -6.154886822486E-02 -4.296708084086E-02 -5.965126548827E-02 3.041042529711E-02 -4.035068661652E-02 -5.773407453986E-02 2.079724489916E-01 -1.915318675014E-01 1.289577351769E-01 -5.763910836040E-02 -1.782283241135E-01 -5.867197435523E-03 -4.303223504772E-02 -1.328840370349E-03 -8.701400992260E-02 -8.562594443748E-03 -1.823464950962E-02 1.911678627663E+01
 -4.361036397391E+00 -2.498926872866E+01 -2.382523838338E+00 -2.903470857694E+00 -5.196957718031E-01 -1.716438526731E+00 4.884511737417E-01 -2.804718275880E+00 -8.805243047468E-04 1.705006901483E+00 -1.519649932959E+00 -3.064890754422E+00 -1.602258311491E+00 -2.590439319545E-01 1.452810451023E+00 -5.408699584733E-01 -1.273485422927E+00 1.555657991507E+00 -2.157830165560E-02 1.371271261222E-01 -6.314449589195E-01 3.571256776810E+00 -1.360105675001E+00 3.825466291244E-01 -2.573653580824E+00 -4.865948309027E-01 1.128749424336E+00 -2.545861404609E+00 1.600776165332E+00 -8.262695351720E-01 2.584655744757E+00 4.830686942351E-01 -7.528962113281E-01 2.521172636627E+00 -7.809099754649E-01 -5.594506885760E-01 5.372049198757E-01 -3.776957399601E-02 1.984254230049E+00 -2.166894739522E-01 -1.871430672637E-01 3.035284601320E+00 3.179716567112E-01 7.677253204266E-01 7.201821506520E-01 2.357564039616E+00 -5.361884931752E-02 8.327810562008E-01 7.557290303009E-01 3.186117308718E+01
 -5.210989910218E-02 1.747637400838E-01 -1.491639557724E-01 -7.943723473337E-01 -2.334664665971E-02 -2.687088297392E-01 -5.740209384852E-01 2.866165118152E+00 -2.688727544529E+00 5.203219820316E+00 -1.538362343913E+00 -5.768913480296E+00 6.305894431982E-01 6.032687085310E-01 -1.349243815930E+00 3.327358658160E-01 -8.003768069997E-01 -2.504303292444E-01 1.509593216741E-01 5.486810974205E-02 -6.328926783131E-02 -3.900742076051E-01 4.010202353975E-01 -2.699072538971E-01 -2.751976810232E-01 -4.420188040559E-02 5.424206370467E-02 -1.859422479916E-01 9.268301090164E-02 -8.833258631844E-02 1.743086582963E-01 -1.847970151593E-02 -1.237392884520E-01 2.303473884420E-01 -6.903384305861E-02 -9.407845752770E-02 -3.922849644513E-02 3.833692203314E-01 -1.674958463626E-01 1.540481349431E-01 -9.334832845552E-02 3.606437237785E-02 2.298732836479E-02 7.374306622219E-02 6.056115523050E-02 1.228104695643E-01 -3.027438384775E-02 8.566099366926E-02 -3.981232356703E+00 -1.258198430774E+00 1.213603843082E+01
 2.212167618833E-01 5.929832150110E-01 1.645140994582E-01 8.916349446750E-01 1.153352260492E-01 3.919969849151E-01 6.101489822314E-02 -2.170023458672E-01 6.787556745426E-01 -2.800564537813E-01 3.493255595754E-01 6.636951882847E-01 -9.713829593478E-01 -9.097514851085E-01 -2.124885217217E-01 -1.829551035729E-01 3.041166248566E-01 -6.868003542671E-01 -3.364427227343E-01 -4.454640904790E-01 4.990087005839E-01 -1.073644885120E+00 1.036950822898E+00 6.218410938737E-01 3.444655590967E-01 -1.544879076429E-01 2.214381966582E-01 1.404833463494E-01 3.099337807477E-01 6.608124439658E-01 -2.197823929614E+00 -1.308535222569E+00 1.106091971974E-01 -1.631701056640E+00 8.903871079014E-01 -3.665594513639E-01 -1.695873059644E-01 2.209028727978E-01 -6.338510275612E-01 1.794028154614E-01 -1.082443657568E-02 -8.297125772952E-01 -7.956978884467E-02 -1.848288428675E-01 -1.590493349962E-01 -5.801086011677E-01 -5.195930206036E-03 -2.027662617531E-01 -2.590191537239E-01 -7.686782452689E-01 -6.767190620172E-01 6.976821446267E+00
 5.366733284575E-01 1.997953401756E+00 3.726992318056E-01 1.813802854990E+00 2.301606151164E-01 7.583121482538E-01 1.246646284917E-01 -4.005229484200E-01 1.254453938835E+00 -7.483441070215E-01 7.811428549996E-01 1.540455376657E+00 -2.788294736047E-01 -5.963914932939E-01 -2.720335547408E-01 8.692419315675E-01 -1.955670542945E-01 -6.757797972299E-01 -5.614378533478E-01 -7.002938454475E-01 5.725793855259E-01 -2.694441768071E-01 -1.052316338135E+00 -9.923657702012E-01 7.395408382272E-01 -3.046985648805E-02 -1.914016066494E-01 1.839086750581E+00 -2.045960732419E+00 -6.067408443438E-01 -2.382983159239E+00 -1.206850326329E+00 1.711574764596E-01 -3.935885246015E-01 4.374267732067E-02 4.603550175760E-01 -3.850737635398E-01 7.201743663784E-01 -1.419003576134E+00 3.611650711671E-01 -4.980670101323E-02 -1.639094265020E+00 -1.358757534162E-01 -3.324818018590E-01 -2.999962247256E-01 -1.181438033733E+00 -1.259360024376E-02 -3.641574068643E-01 -1.748212862045E-01 -2.061049520062E+00 -6.008754807885E-01 1.310378341501E+00 6.557663551683E+00
 5.010954152913E-01 1.511009749459E+00 3.703850026542E-01 1.869524372826E+00 2.473654271943E-01 8.417146660272E-01 1.298159966096E-01 -4.447020385810E-01 1.404010495826E+00 -6.645886360631E-01 7.637926530359E-01 1.446041585851E+00 6.328812965148E-01 -2.059639664033E-03 -3.370316754777E-01 4.163977939129E-01 1.162288644935E-01 -1.153090025628E+00 -7.974701608464E-02 -2.687987553918E-01 -4.863099856445E-01 -5.920840866325E-01 -6.681725122450E-01 -6.947881088307E-01 1.636043733288E+00 6.410137585983E-01 -1.737930912053E+00 1.780710032711E+00 -1.754548957376E+00 -2.656962479882E-01 -1.352951334299E+00 -3.516827018960E-01 2.472312174734E-01 -1.630830918962E+00 7.525570100020E-01 -9.569014280587E-02 -3.862005023060E-01 5.730420979944E-01 -1.419397855626E+00 3.345500543763E-01 -2.845598892554E-02 -1.745012112762E+00 -1.464940460554E-01 -3.611447702857E-01 -3.296111156110E-01 -1.252801109536E+00 -1.310630333094E-02 -3.884298682646E-01 -6.758090467953E-01 -1.856969599778E+00 -1.612779288505E+00 1.973554748976E+00 3.680488109249E+00 1.100646878467E+01