#BIOSYM hessian 1
@Type: Hessian Update
@Units
 distance: 	A
 energy: 	Kcal/Mol
#header
@natom 19

#label
L1      L2      L3      L4      L5      L6      L7      L8      L9      L10     L11     L12     L13     L14     L15     L16     L17     L18     L19

#element
Li Li Li Li Li Li Li Li Li Li Li Li Li Li Li Li Li Li Li

#matrix
57
 3.294857459179E+03
 4.669639268962E+02 5.250646353812E+02
 5.502690943770E+02 1.023636505418E+02 7.616801824309E+02
 -5.252254558889E+01 -2.482083110195E+00 -2.637618504751E+01 6.889111813860E+02
 2.588428787279E+00 1.545861664541E+01 -8.200268419582E+00 1.750544322720E+02 4.931955480751E+02
 -1.011660883673E+01 -1.598003766216E+01 -9.561522379640E+00 -1.750911813477E+02 5.760102059494E+00 8.604752014949E+02
 -3.225267505879E+01 1.109748573736E+01 2.497164911309E+01 1.063470120204E+01 -1.030391673813E+01 2.844138418990E+01 2.702573821777E+03
 8.904203964723E+01 -6.147325537759E+01 -2.907552261386E+01 -2.363876751692E+01 1.419200707755E+01 -2.448043945739E+01 -8.281126697883E+02 1.458695441706E+03
 4.549162065599E+01 1.942976197745E+01 -6.508766301518E+01 -1.000686774149E+01 -1.019611446298E+01 -1.468211930172E+01 1.531740803669E+02 -8.813537725779E+02 1.998757891145E+03
 -1.256710961757E+00 2.065373022001E+01 -5.500045061697E+01 -8.267795960908E+01 2.648404567744E+00 -1.595067928597E+01 -1.342912775370E+01 5.671713561553E+01 1.777555090382E+01 3.697328589667E+03
 -4.635091127320E+01 2.231791426461E+01 -4.845571024112E+01 -2.049072384408E+01 -2.996604908358E+00 1.533092294545E+01 9.685411631914E+01 -8.579794356522E+01 1.140857020730E+01 -7.738297539007E+02 8.941832734914E+02
 -8.365081014963E+00 1.058659784550E+01 9.790373375446E+00 -2.297730226445E+01 -6.160357389349E+00 -6.424586524008E+00 1.398929258873E+01 -5.267015695378E+01 -3.360443050451E+01 1.648339285653E+03 -4.494259202612E+02 1.161787217912E+03
 -3.326958812338E+01 7.268802629880E+01 -6.204413616745E+01 9.252385585440E+01 -2.894123317255E+01 -1.941174113966E+01 1.339526961019E+02 -3.392903878429E+02 -1.950320019110E+02 2.229520881643E+01 1.396141786631E+02 4.234900316536E+01 3.181328758638E+03
 -1.489703461807E+00 2.935074028684E+01 -4.369315986977E+01 -1.697210468995E+01 -8.915978503801E+00 1.429133444183E+01 6.127368278435E+01 -5.940741245282E+01 -3.054230980527E+01 -5.243698504057E+01 -3.792063799955E+01 -2.614371732333E+01 8.217438395047E+01 7.608362684133E+02
 -2.056556516525E+01 -3.038931284734E+01 9.897340976984E+01 8.156733037960E+00 1.941496040607E+01 -1.109866109316E+01 -5.978476371704E+01 6.794001213049E+01 -7.837530796900E+01 6.602353899476E+01 1.799250670971E+01 -4.325608212785E+01 5.373634667307E+02 -4.879300525310E+01 6.809046658505E+02
 -9.954612368329E+00 -7.126271866819E+00 -1.102024631415E+01 -4.141891629142E+02 -1.419850106446E+02 -2.322432269637E+02 -7.761505721248E+02 1.287101341971E+02 1.329143203921E+02 -3.316894184766E+01 -1.378988751817E+02 -3.269545460038E+00 -1.081308490038E+01 -7.000360861860E+01 3.711735692191E+01 1.981898590166E+03
 1.114502592547E+02 -5.198452289843E+01 2.588807806829E+01 -3.434540913415E+02 -1.451926369312E+02 -2.219260383246E+02 -2.922595803764E+02 3.901476541394E+02 1.544067910397E+02 3.994308839160E+01 -9.247808442141E+01 -3.531980393106E+01 -2.269959089928E+02 -4.274125146832E+01 4.140440468476E+01 7.760164818199E+02 1.395050375637E+03
 3.073120564993E+01 1.192484432636E+01 -5.599388194408E+01 -2.190903537439E+02 -1.669043129447E+02 -1.321729100536E+02 -8.092386071076E+01 2.418990938912E+02 1.517159117547E+02 3.246207397299E+01 -6.916144102756E+01 -3.059944078225E+01 -2.029164857589E+02 -4.239457249211E+01 -5.499977965290E+01 4.535742110469E+02 -5.695611001647E+02 2.483386827739E+03
 -9.262389640878E+00 -7.706858801851E+00 3.577713372342E+00 -3.602755212265E+01 1.260948518635E+01 -1.455363879695E+01 -8.564904957159E+00 -1.127833207850E+01 2.585333665629E+01 -2.099982561801E+01 -1.391168874430E+02 -1.175940204554E+00 2.777227270295E+01 -1.205906755584E+01 2.812940910000E+01 -7.826212932235E+01 5.097722122163E+01 8.069439532074E+01 8.120329797920E+02
 2.411186471770E+01 -3.811584744749E+01 5.406357268264E+01 2.948171145879E+00 8.175986447112E+00 -2.673705362180E+01 -2.051827063034E+02 3.141389013921E+01 -5.873813081246E+01 -1.162714539426E+02 -4.056757106948E+02 -4.915211787221E+01 -1.087920489208E+02 -5.636304052844E+00 4.594155716803E+01 2.108351742574E+02 5.835369914914E+01 6.035616707136E+01 -2.362052157798E+01 1.173929209271E+03
 6.473306522854E+01 5.024042647350E+00 -1.099936437390E+02 5.870304395022E+01 -9.664324034711E+00 2.236229871924E+00 -1.048920942897E+00 -5.066005014786E+01 5.073793515724E+01 1.540506260212E+01 -8.546974663144E+00 -1.879325882401E+01 -7.908772347290E+01 8.393039939866E-01 -1.414574693518E+02 1.367711134631E+01 -5.881162864498E+01 7.134122686872E+01 -1.107347812063E+02 1.110907531539E+02 1.186350436287E+03
 -1.597737269571E+01 6.162279632209E+01 6.094012975923E+01 3.258141487950E+01 -5.987670813271E+01 2.682095198394E+01 -4.375457747536E+02 3.944832157021E+02 -7.182450992103E+02 -8.181544431572E+00 1.206493303146E+01 9.845182440885E+00 1.469389751509E+01 6.669384280457E+00 9.683750780575E+00 -5.221332985725E+02 -5.409516017502E+02 4.866005758671E+02 5.168798579589E-01 -2.407415689460E+01 -2.118807972014E+01 9.809201111241E+02
 7.780697909866E+01 -1.152261937942E+02 -1.660037631719E+02 1.183321422707E+02 -2.230291723983E+01 2.755066647272E+00 5.292728312406E+02 -6.848983296530E+02 7.235299799863E+02 8.974884544998E+01 1.220659639463E+02 3.019595101690E-01 -4.649714391228E+01 4.682150246876E+01 -1.058199086359E+02 -4.519458778331E+02 -6.735256355983E+02 6.499133948745E+02 5.990652645395E+01 -1.238023493462E+02 4.628091678244E+01 -4.950549904791E+01 1.347960551769E+03
 1.155493673046E+02 -2.112043990930E+02 -1.511299812314E+02 -1.217439414999E+02 4.709403039654E+01 -9.447875495665E+00 -7.570736607149E+02 1.007306633115E+03 -9.097155390296E+02 -2.142993387373E+01 -1.746089111364E+02 -1.011839476739E+01 -8.938815001948E+01 -8.377616723117E+01 9.924635035422E+01 4.961125845578E+02 7.901435658120E+02 -4.884014886881E+02 -4.673184742441E+01 1.783643650347E+02 -1.521134361920E+01 6.226541791907E+01 -1.030866222128E+03 1.789682937762E+03
 -1.545184841476E+01 -5.119580904645E+01 1.064421037569E+02 4.241767391481E+01 1.531962593127E+01 -2.032862797561E+01 -1.280338890940E+02 8.559239191233E+01 -2.370112750336E+01 8.013441201186E+01 5.500171448169E+01 -2.632519347990E+01 -3.172483683883E+01 7.482640991244E+01 -9.972670343741E+01 1.528827779090E+02 6.811001190299E+01 5.172921717133E+01 -7.929887988530E+01 -2.785270719123E+00 -2.979737846041E+01 -2.020536562747E+00 -1.723830789489E+02 1.825561862541E+02 1.477053614619E+03
 -3.168690618999E+01 4.406671581240E+00 1.504869084762E+01 1.643520139120E+01 -1.498234060283E+01 1.067554758899E+01 6.931526894301E+01 -1.299583237140E+02 -2.525145194465E+01 4.907450048763E+01 1.915864725904E+01 3.427635787533E+01 8.626010601455E+01 2.705375616970E+01 -1.340069446627E+01 -4.207705884409E+01 -1.059007581950E+02 -6.812480328609E+01 1.048353339628E+01 -8.060293606564E+01 -6.388012779546E+00 1.951117443173E+01 5.653158689335E-01 -6.704732984699E+01 2.488213056371E+02 5.211449796859E+02
 -6.871587904219E+01 -6.237966990374E+01 9.075234568366E+01 6.527404556863E+01 -4.388814118365E+00 3.057794955476E-02 6.599052228154E+00 -6.906427125616E+01 2.417100909399E+00 1.657872800521E+01 8.075125849047E+01 -1.000238414781E+01 1.075265871950E+02 5.208013058585E+01 -8.706870517950E+01 -1.536888667677E+01 -9.373437845329E+01 -4.812786199427E+01 1.653146102215E+01 -5.553821403556E+01 -6.954660255975E+00 1.179405341826E+01 -7.019440182133E+01 -5.109314814504E+01 8.472300689079E+02 1.452965265436E+01 1.302597631339E+03
 7.190016467858E+01 1.398372411808E+01 -1.293683561585E+02 -8.242002248163E+01 3.813042308232E+01 4.219731887429E+01 -5.552240164008E+01 2.338106792369E+02 1.204228340804E+02 -1.312960781600E+03 5.516303776384E+02 -8.813146731208E+02 -2.503702419005E+02 -9.152730057398E+01 1.000935890730E+02 4.426357725666E+00 2.160983518486E+02 1.401026509977E+02 -8.115622244915E+01 6.630419328037E+01 1.548905679131E+01 -3.402867477840E+01 5.983609268060E+01 4.180367967238E+01 1.827848427527E+02 -5.676207958076E+01 6.725144969020E+01 1.689181569388E+03
 -3.970230361383E+01 -2.911503953964E+01 3.986641645812E+01 9.092354487663E+01 -1.935348125172E+02 -7.395017276892E+01 6.675181087665E+01 -1.108036897894E+02 9.140281213282E+00 7.185091574581E+02 -3.720992094046E+02 5.038643050256E+02 9.467292602052E+01 2.409618880015E+01 -5.264095296703E+01 -6.358224018029E+01 -1.057370968015E+02 -5.804097984636E+01 -4.812028560782E+01 -1.007916359563E+02 2.416407836267E+01 1.978163612033E+01 -1.953683889740E+01 -9.204206686075E+01 -5.949569650263E+01 5.248178291127E+01 4.761375541955E+01 -6.465515073561E+02 7.963178600919E+02
 5.275248945348E+01 2.841116805929E+01 -5.164728760008E+01 -2.469384627722E+01 -8.863903924768E+01 -9.818206965097E+00 1.236033584460E+01 2.614257654109E+01 1.641295396888E+01 -8.880568603572E+02 4.213894995443E+02 -5.585308059095E+02 -7.413079244547E+01 -9.057986933596E+00 6.066095464597E+01 -3.714185179309E+00 6.008001628064E+01 1.254949139161E+01 -5.120567218620E+01 -2.142834038075E+01 -4.135117718944E+01 1.496709063813E+00 2.853834513229E+01 1.771083254841E+01 9.851611917407E+01 -1.066095798366E+01 2.857113834715E+01 4.929583124856E+02 -4.397048158160E+02 1.013448795247E+03
 2.403622446099E+01 2.789866418392E+01 3.066584488043E+01 1.561252963388E+01 1.058839211794E+01 -6.000945965181E-01 -6.347174951514E+01 6.539750179483E+01 4.957190296146E+00 -1.238785052659E+01 2.608960862967E+00 1.091911553573E+01 -5.154442269152E+01 2.297388662523E+01 -4.035746862151E+01 7.128608931759E+01 6.012722866285E+01 4.226851515642E+01 -1.882679617647E+02 1.444396979340E+02 2.293014454592E+02 -3.111165619227E+00 -7.056515277884E+01 9.297170221533E+01 -1.373647136126E+03 -1.599563557845E+02 -1.167650479612E+03 7.149269147321E+01 -7.045150844752E+01 -3.975360946041E+01 3.753328500062E+03
 -6.125782190403E+00 -7.068620765980E+01 2.372950377582E+01 1.768011990462E+01 -1.215373953784E+01 1.674650791037E+01 1.149203551112E+02 -1.578083394420E+02 -2.368036294375E+01 -7.774001620599E+01 2.152014394116E+01 8.194472178825E+00 1.122697122527E+02 -1.578473498670E-01 -8.745112358207E+00 -9.824849730536E+01 -1.411502100680E+02 -9.273456565074E+01 9.971457956718E+01 -1.122230638194E+02 -1.343081336267E+02 1.781794528022E+01 5.701204910548E+01 -1.334895732618E+02 -9.236526168631E+01 5.438994311004E+01 -3.327906665109E+01 -4.276988085125E+01 3.713876608094E+01 -1.595547743713E+01 2.482861146614E+02 5.063827878855E+02
 -5.384578043318E+01 6.518752209639E+01 -1.855554951283E+01 -2.820529217205E+00 9.630125963587E-01 1.822355927409E+01 1.294314642951E+02 -1.854693287942E+02 -4.174854106595E+01 -2.830312413956E+01 2.614250600017E+01 2.864493383104E+01 1.618728024814E+02 -3.176221208867E+00 3.628275480374E+01 -1.310414070710E+02 -1.584385905183E+02 -1.220825546566E+02 1.792394318516E+02 -1.494548890298E+02 -2.840941642562E+02 2.448575317886E+01 1.029690924627E+02 -1.754323712033E+02 -1.221190295001E+03 -7.439089601322E+01 -1.049842603843E+03 -1.561806738994E+02 2.990095831747E+01 -9.359786790481E+01 2.186699143639E+03 3.532004419142E+02 2.188804073853E+03
 5.337855797454E+01 4.201477279944E+01 -1.149033841570E+02 -6.975351581586E+01 -7.058881212000E+00 -1.509678938277E+01 -5.869485294971E+00 4.820471495978E+01 -1.176216507795E+01 -1.079608979281E+01 -8.498588754311E+01 3.611127280353E+01 -1.121277352715E+02 -5.843284849622E+01 1.190703711460E+02 1.630619202665E+01 8.172592558421E+01 3.397854375513E+01 1.622368908175E+00 1.549414197856E+01 -2.890558707195E+01 -1.381164577763E+01 8.446014749521E+01 3.932729798337E+01 1.806919072584E+02 -1.779508019299E+01 -8.601125922535E+01 -4.597343381736E+02 -7.919439549494E+01 3.120776251918E+02 -1.986099370536E+03 -2.893968224057E+02 -1.108248433782E+03 2.314021405788E+03
 -7.304320402425E+01 -9.908306853847E+01 -3.293597529601E+01 7.951034726254E+00 -2.656321374034E+00 1.695430858367E+01 1.392653661421E+02 -1.915272475848E+02 -3.307510446326E+01 -8.781650573582E+01 -3.972683296039E+00 4.712620840438E+01 1.649382284268E+02 -4.449646045720E+00 2.631489935803E+00 -1.389627326823E+02 -1.814221535662E+02 -1.158415329150E+02 -3.298273637626E+01 -8.600332165952E+01 -8.593045233407E+01 2.351881070907E+01 1.044601092524E+02 -1.810456935002E+02 -2.166741186368E+00 5.774837140333E+01 4.075948765379E+01 -1.986683756870E+02 4.460619100492E+01 3.437632010781E+01 -2.268554161401E+02 3.136872950134E+01 -4.779163617583E+01 1.630862160608E+02 4.654387341531E+02
 -4.145382186977E+01 -4.322076628764E+00 -1.039103069700E+02 -4.104076564445E+01 -2.766334767366E+01 2.301696132477E+01 1.316137406302E+02 -9.673228924287E+01 2.582117226328E+01 -9.174673137263E+01 -2.540913151727E+01 -1.044469131719E+02 4.120901435489E+01 -6.337264253011E+01 8.054584575648E+01 -1.539106267339E+02 -7.692464638024E+01 -6.285349169138E+01 -4.969152883082E+01 -9.814006703963E+01 -1.950544415051E+02 8.515980411811E+00 1.420638219781E+02 -1.829734496806E+02 2.180847030239E+02 6.513417210272E+01 1.360725188036E+02 1.378751227877E+02 1.551207596748E+02 -2.697694762177E+02 -1.164543236256E+03 -1.058212394997E+02 -6.525677218398E+02 6.130874116332E+02 2.182938921027E+02 1.108729320352E+03
 -4.345125412489E+01 -9.477047882444E+01 1.555801322991E+02 -3.024465857302E+01 3.223894153912E+01 9.178617998078E+00 -1.595037361093E+02 2.084595451068E+02 9.050132992412E+01 -2.091604544000E+01 -2.255916864332E+01 -4.216554386715E+01 -1.329323372653E+03 -2.905223727965E+02 2.053394819886E+02 -1.007860891403E+01 9.565081709622E+01 3.838957343311E+01 -6.469272739877E+01 7.911245213938E+01 -3.520742442852E+01 7.122056826083E+00 -4.191903628143E+01 5.559196440028E+01 -1.072120574843E+02 -5.228330717795E+01 -4.568227731236E+01 2.532137152098E+02 -8.126687860380E+01 9.651728698782E+01 -6.070808475451E+01 -5.032161564517E+01 -7.748071525437E+01 1.600376632438E+02 -6.432209052125E+01 8.956169194083E+01 1.490127527807E+03
 -2.084603345715E+01 -1.522793062080E+00 2.939661448034E+01 -9.043253927406E+00 -7.658070416756E+00 1.474273087416E+01 2.287206944049E+01 -1.045296630338E+02 -1.694359466670E+01 -5.393501615448E+00 -6.561690508755E-01 3.176931538201E+01 -3.397632309930E+02 -5.787037921629E+01 7.068047383580E+01 -4.370054581062E+01 -5.498491598385E+01 -6.525506007426E+01 -1.097643854976E+01 -3.240254793208E+01 -2.540933244156E+00 3.090413793197E+01 -1.823337506929E+01 -3.316778964880E+01 -1.124463112722E+00 2.796731045988E+01 3.401129714826E+01 -1.988264404541E+01 2.169242836185E+01 1.341526598251E+01 -3.155497632160E+01 2.627909915613E+01 2.077187827956E+00 -2.943829564231E+00 2.380216797150E+01 2.922996660336E+01 5.991487767245E+02 9.912616353530E+02
 1.483621188849E+01 1.184931292552E+01 -1.353737826461E+01 1.052262173140E+01 2.207896781459E+01 -2.081214813031E+01 -1.423703493012E+02 1.510606471890E+02 -4.921511168967E+01 1.595571397117E+01 3.001397289514E+00 -2.362756343740E+01 2.573224396027E+02 9.697057250614E+01 -6.357996002997E+01 5.687024224167E+01 9.482817400146E+01 1.637325214955E+01 -4.008760627851E+01 5.742225733628E+01 -1.229550984652E+02 4.435464675741E+00 -5.045661367168E+01 1.253650251939E+02 4.757580842498E+01 -4.791451824918E+01 -6.863664895348E+01 4.162724663780E+01 -6.535422639641E+01 2.827002089529E+00 -2.709995799560E+01 -4.815298651127E+01 -4.586472267998E+01 5.720154559432E+01 -3.779280126899E+01 -2.642958412087E+01 -3.802863423613E+02 -2.072058566396E+02 5.765182389577E+02
 -1.517142432874E+03 -9.479780641743E+01 -7.277296320745E+02 3.845051416470E+01 5.308940394588E+00 1.417316249936E+01 -5.145096401417E+01 -2.718023232386E+01 4.424317086555E+01 5.121299202422E+01 6.199184576997E+01 7.567900718618E+00 9.549233977216E+01 6.864692835860E+01 -1.089983022206E+02 3.026552872132E+01 -5.417693120042E+01 -4.546605610718E+01 -7.654518421745E+01 -7.164256344506E+01 3.372587242806E+01 -6.762215003820E+01 -1.196345397482E+01 3.190960606427E+01 -1.349249002004E+02 6.329431537431E+01 -1.101610937084E+02 1.093034976970E+02 -1.682890313152E+01 7.002867216755E+01 -7.506989278134E+01 -3.893230066501E+01 3.132872890288E+01 1.344491323683E+02 3.329461732506E+01 1.438976735599E+02 -1.802247063459E+02 7.146714115029E+00 -2.004148349035E+01 1.496435924935E+03
 -5.469256206547E+01 1.240088380097E+01 3.152492672414E+00 6.837865817771E+00 1.899557733816E+01 -1.236797035123E+01 -7.063659804384E+01 3.504766636977E+01 -2.730196165586E+01 3.169774691926E+01 1.518775772073E+01 -1.802835642657E-02 -4.454940274018E+00 1.165618923785E+01 -5.340375815603E+00 3.568058703422E+01 9.298833545142E+00 3.102578325553E+01 -4.313833550025E+01 -2.897085215438E+01 -1.282487885162E+01 6.406505643950E+01 -4.882846327082E+01 2.348977414207E+01 2.611573320451E+01 -1.332990620329E+02 -2.784416131666E+00 2.469728049465E+01 -4.995792729079E+01 1.741518497705E+01 -7.937221168480E+01 -2.343945319186E+02 -2.973977735217E+01 6.563557355781E+01 -8.021087594957E+00 1.353954373775E+01 -2.662087407887E+01 -2.148117703760E+01 3.966614583319E+01 1.344003671514E+01 4.326542605909E+02
 -9.102984185264E+02 -4.457640588172E+01 -4.335897197527E+02 -5.666684392317E-01 -2.348802282804E+01 3.434747210255E+01 1.496546532590E+02 -2.008924927266E+02 -6.161072469424E+01 -2.923859264350E+01 4.401292338129E+01 3.181976281635E+01 1.619069065889E+02 6.943719698047E+01 -5.374990135587E+01 -3.708794173778E+01 -1.246550935296E+02 -1.431959952931E+02 8.436038897530E+00 -5.538985278413E+01 -6.224934682227E+01 2.463824128507E+01 -3.651220653380E+01 -9.775626696781E+01 -8.898935510750E+01 1.120642766980E+02 -1.064328208834E+01 -2.428654708988E+01 6.552094259642E+01 3.295186882177E+01 5.636997568395E+00 4.806196615405E+01 1.017269285173E+02 -4.619749867518E+01 5.863397686401E+01 8.328734234216E+01 -1.411802806949E+02 4.301799682787E+01 -7.419906830717E+01 7.916686809404E+02 -7.695919629583E+01 9.580259984900E+02
 -1.341796207521E+01 3.599457943610E+00 2.112725677736E+01 3.272624882526E+01 -2.624990459997E+01 1.578392602691E+00 -3.335865209498E+02 -3.113354726133E+02 4.229874067722E+02 -1.195035836696E+01 3.512638906717E+01 1.111030173052E+01 5.912159303272E+01 6.876071105388E+01 -1.158240733961E+01 -3.892349080882E+02 1.324426830490E+02 -7.545405466801E+02 -7.423329549663E+00 -4.068226572503E+01 -2.490873225946E+01 3.335029160463E+01 -9.357867193522E+00 -4.798471251166E+01 -3.383024099991E+01 2.783118879231E+01 2.620217969446E+01 -2.756853481771E+01 3.685627006478E+01 2.575193239554E+00 -1.656506177988E+01 3.657674534070E+01 4.910127243674E+01 -2.288941467672E+01 4.232942548235E+01 4.352499035399E+01 -4.048659087984E+01 6.941497901893E+01 2.521237668864E+00 1.513219203250E+01 -7.933794793469E+00 6.030008668004E+01 7.776715118277E+02
 4.158957517646E+01 -1.188895128996E+01 -3.449643733859E+01 3.264665270069E-01 1.842453704743E+01 9.191793260030E+00 -1.710806089568E+02 4.789638914639E+01 2.182686957984E+02 3.506985308173E+01 -3.748908499532E+01 -1.354273863983E+01 -7.020615908753E+01 -6.002817753125E+02 -1.067622351025E+02 2.306201263912E+02 7.355214512732E+00 3.876010459595E+02 2.680124419211E+00 4.636744647969E+01 6.473212049508E+01 -1.268996752695E+01 -1.567752705633E+01 1.860550810615E+02 1.736212417845E+01 -3.462455250031E+01 -5.942489097954E+01 5.556882368384E+01 -5.022891034374E+01 9.517983713948E+00 2.005081644180E+01 -3.847574085654E+01 -6.297348477120E+01 5.433699416568E+01 -4.113338648409E+01 -3.288291633253E+01 5.668367151658E+01 -6.051954032522E+01 -1.845143749538E+01 -8.674983894623E+00 1.483152368358E+01 -7.914590840153E+01 -8.355408617981E+01 9.147473929728E+02
 -9.808653793574E+00 -2.559632171515E+01 8.129034261737E+01 1.283055023310E+02 -9.470114432977E+00 -3.439733602860E+01 5.640300660983E+02 7.815682567809E+01 -8.905328017848E+02 8.438311893697E+01 1.620423636416E+02 1.364350208219E+01 1.002614999932E+02 -1.882408327831E+01 -2.507808658979E+01 -6.424094629594E+02 2.507357892149E+02 -1.517068406907E+03 -3.232037834863E+00 -1.364347473751E+02 -5.804921466892E+01 -8.872566360747E+00 -2.129208782053E+02 4.841436335966E+01 -2.046893739172E+02 1.900372346815E+01 -5.737464652196E+01 1.662593946968E+01 -1.615167765484E+00 1.459985631269E+01 -9.434880097140E+01 8.967531661396E+01 1.421439184586E+02 8.162420458780E+01 1.513846834482E+02 1.823853477305E+02 -4.569515373068E+01 1.968719753165E+01 -2.282517869553E+01 -7.031153872494E+01 -4.348204712875E+01 1.433360459546E+01 2.230508646138E+02 -3.983639628523E+02 2.143033506020E+03
 -5.060650584064E+01 -6.782657504735E+01 1.313349039755E+02 1.328115097501E+02 7.455653762567E+00 -9.916232820750E+00 -6.400890810787E+00 -7.455977401867E+01 -2.195064453319E+01 -2.189675516687E+03 2.216801298018E+02 -8.585828394342E+02 3.631148421342E+01 1.129874999142E+02 -1.123076180863E+02 3.863925473154E+01 -9.907941650277E+01 -4.613938721640E+01 -4.101033005309E+01 7.950014102996E+01 -1.019281850114E+01 1.132939502854E+01 -1.489882498593E+02 7.382062086468E+00 -4.270533902753E+02 -2.711617106526E+02 1.214807560560E+02 1.529135455721E+02 4.288235998552E+01 5.499455329836E+01 -7.802571233560E+01 4.392228141088E+01 8.070883314115E+01 6.112436890457E+01 1.160603159961E+02 2.033062784809E+02 -1.140718770845E+02 -3.477006583085E+01 -5.243563490972E+01 -1.530693365222E+02 -6.327298288886E+01 -7.690416174224E+00 1.544254470049E+01 -5.929335448031E+01 -1.322458344267E+02 2.387341216915E+03
 -4.607781089206E+01 -2.468712656460E-01 -1.909467224724E+01 -6.797277352870E+00 -2.231391247718E+01 2.447059943526E+01 1.637208958009E+02 -1.849973095627E+02 5.726455314021E+00 -1.846428290060E+01 -8.997408221054E+00 4.429318926330E+01 2.208005268137E+02 -4.715702106220E+01 -1.765725198176E+01 -1.786463796021E+02 -1.737954872387E+02 -1.141520527893E+02 7.458008965098E+01 -2.254955254928E+02 7.339679236555E+01 2.600494407114E+01 1.209875795647E+02 -2.306253476943E+02 -2.300728601508E+02 -1.885719773144E+02 2.452661115971E+02 -1.455034835335E+02 1.019522664769E+02 -4.227845574263E+01 5.671924688043E+01 1.401332528545E+01 1.241489746852E+02 -1.341079768739E+02 4.853987229241E+01 -4.025277050403E+01 -8.085219291722E+01 -2.306689441738E+02 -2.394912809588E+02 4.823081088707E+01 -2.372337369859E+01 1.138330756207E+02 6.173965944448E+01 -7.050709791060E+01 1.650939582795E+02 2.120544803929E+02 8.512788618844E+02
 -5.743741063464E+01 -1.506006699941E+01 7.320521210769E+01 5.919432773996E+01 1.616719575131E+01 -9.098436911293E+00 1.290117548361E+01 -1.065187243524E+02 -5.153473351683E+01 -8.480109732426E+02 1.126915117434E+02 -3.342576688718E+02 1.917801493372E+02 1.131258899801E+01 -1.068532630328E+02 -5.141721131372E+00 -1.222731779248E+02 -7.178262222867E+01 -2.051950814790E+01 1.405648778973E+01 -3.846842074107E+01 1.542477040247E+01 -3.960605826668E+01 -3.652356503423E+01 5.274659052856E+01 1.563705831119E+02 -1.064323852380E+02 2.584335736252E+01 3.221641577660E+00 1.537748447296E+01 -2.887903585347E+01 1.089183099510E+02 2.336836831478E+01 1.058860114407E+01 8.651042457423E+01 7.921721499705E+01 -1.549381307669E+02 -1.970032117710E+02 -1.477760647103E+02 -7.062681934367E+01 -1.399782452541E+01 -8.407272268262E+00 1.120473771753E+01 -3.340984010233E+01 -1.056147544759E+01 6.467505344099E+02 1.517330509389E+01 6.909959258916E+02
 2.444154491425E+01 1.514726297870E+01 -1.088643591598E+02 -6.761261947545E+01 5.298452792282E+01 -4.542583334434E+01 1.451945004700E+01 9.648711342475E+01 6.327002888166E+01 -1.333309989552E+02 -3.789026201033E+01 4.686678930039E+01 -1.678345384606E+03 1.306705073231E+02 -7.608013927775E+02 -7.173861274017E+01 3.824866953818E+01 7.442337138866E+01 -9.254400878890E+01 2.005955412720E+00 1.230104591953E+02 -6.080532532844E+00 1.136990437999E+02 -5.373459042278E+01 1.452025472662E+02 -1.384304099612E+01 6.681426974107E+01 -6.281545679701E+01 2.923607851256E+01 -7.123823298085E+01 6.560433189280E+01 -3.208554490386E+01 -8.781125046091E+01 -1.124750441419E+02 -6.353199167189E+01 -1.254152720044E+02 1.350176528253E+02 5.761624326986E-01 1.856940813404E+01 1.049187223864E+02 2.093233188750E+01 -5.908186208246E+00 -5.886197443617E+01 -2.216857143681E+01 4.824460886709E+01 1.597616799444E+02 -9.494279070860E+01 5.100138694352E+01 1.698527585135E+03
 -3.564319488662E+01 -5.841934215027E+00 8.915024833378E+00 6.925485248504E+01 -1.202332601853E+02 1.451396648265E+02 7.732006579073E+01 -1.321473002425E+02 -2.242852038146E+01 3.252183517489E+01 -3.837665496339E+01 -5.782030620545E+01 3.257746481020E+02 -2.485094241507E+01 1.121456784627E+02 -9.708052195792E+01 -1.667880281187E+02 -6.498143622914E+01 -3.517347852548E+01 -4.879233874967E+01 3.413775933190E+01 1.773616725806E+01 2.943149541083E+01 -9.914784602986E+01 -2.115773464928E+01 4.087204349741E+01 4.293295833205E+01 -5.807585173477E+01 4.046961506353E+01 -4.663845321853E+01 -1.582855675197E+01 4.764728352249E+01 4.130683755005E+01 -3.708249599455E+01 5.397492078167E+01 3.120566657480E+01 -4.541949944735E+01 1.714932965711E+01 -3.431592183624E+01 1.051345743466E+01 -2.142313363946E+01 5.871299099752E+01 -2.866186723085E+01 -1.203830826547E+02 6.737170497758E+00 5.104560678728E+01 6.271917771865E+01 3.350663332033E+01 -2.511285192849E+02 4.082618892225E+02
 2.842807469138E+01 8.669990860215E+00 -5.917503642147E+01 -8.794722792228E+01 1.538930010602E+02 -1.640109143090E+02 -1.162778500065E+02 2.742611820382E+02 1.599783788477E+01 1.241414920033E+02 -1.364556780240E+02 -9.701130221343E+01 -1.022936694890E+03 7.442868075342E+01 -4.166029244786E+02 9.377042229016E+01 1.924378265935E+02 1.601295136485E+02 8.089225666161E+01 1.176797322530E+02 -1.929614502889E+01 -3.556925206893E+01 9.589235157815E+00 1.346113357369E+02 7.887574786616E+01 -8.237364731817E+01 -4.852982260494E+01 6.506928937966E+01 -1.233444462810E+02 -1.841545093077E+02 3.816197494337E+01 -9.604939102304E+01 -9.673324473934E+01 3.032241948152E+01 -1.086221670520E+02 -1.065738365179E+02 1.009551625501E+02 -5.471075766268E+01 1.022490599968E+02 -1.325916169433E+00 5.618271614426E+01 -1.555894311186E+02 -1.312901651742E+02 1.964491946745E+01 -5.710387497666E+01 -3.879041085841E+01 -1.485310954899E+02 -2.189402555483E+01 8.408619493460E+02 -2.017345762919E+02 1.097347120985E+03
 -1.610982410166E+03 -4.497521335692E+02 1.333543864986E+02 -3.353822381701E+02 -8.368216366749E+01 4.375209766100E+02 -3.951321786255E+01 4.845384194432E+01 -3.716586400886E+01 -5.357249402046E+01 -1.103466123521E+01 -2.386204505185E+01 -2.088702442570E+02 -6.666148402212E+01 1.193547152052E+02 3.324605607456E+01 4.691349742575E+01 3.725538793491E+01 -4.948063394218E+01 3.659123670431E+01 -9.993509723298E+01 -1.155555725253E+01 -6.702358703069E+01 4.495872458887E+01 1.118249745004E+02 -4.047470972394E+00 1.070097721573E+02 -9.269567123625E+01 1.216621115725E+00 -5.260710282899E+01 1.932167423469E+01 -4.799880407107E+00 -2.972723932417E+01 -1.904583044702E+02 1.054545654979E+02 -4.468487880434E+01 2.936261564948E+02 2.496044176334E+01 -1.106644290187E+01 1.650748288608E+02 3.662996963762E+01 5.226418958185E+01 -1.609993707892E+00 -1.936950536566E+00 -1.033505343298E+01 1.349090423569E+02 -2.177738902540E+01 7.725054037612E+01 -7.492471450366E+01 7.977606380466E+00 7.138937863509E+00 1.940310281574E+03
 -4.537878695935E+02 -1.262378740970E+02 5.857202442275E+01 -7.401856454080E+01 -1.346879009345E+01 8.019260369342E+01 -5.269430526720E+01 8.702181603726E+01 4.119358059498E+01 4.041469851219E+01 -1.181499080917E+01 -5.424613753856E+00 -1.439680354974E+02 -3.202639434009E+01 3.867768641788E+01 1.051967134346E+02 9.421975897280E+01 7.463626027869E+01 6.597963105222E+01 7.866075830954E+00 3.726892262911E+01 -7.113538102610E+01 -9.118370854525E+01 3.791390524368E+01 3.219291610816E+01 -3.796342034184E+01 1.039769369028E+00 5.282421422837E-01 -7.422816052523E+01 -8.907297707921E+00 1.386508480114E+01 -3.418350878781E+01 -3.736961309190E+01 1.005340649617E+02 -2.243308524527E+02 -1.091174002269E+02 1.331686478015E+02 -1.790441934660E+01 2.672231254584E+01 7.428929167607E+00 2.589266357367E+01 -5.855587042551E+01 -4.619760863182E+01 3.270509324147E+01 -8.811166653196E+01 -5.276089604430E+00 -4.445862083333E+01 5.541146000682E-01 1.010589009981E+01 -2.809308488301E+01 8.822812057476E+01 4.023423595720E+02 5.147097522206E+02
 3.049697891193E+02 1.172417799810E+02 -3.708929193502E+01 3.811553072130E+02 7.710954338791E+01 -5.088615076402E+02 2.655982471383E+01 -8.166269798238E+01 -5.668078921865E+01 -5.573690244078E+01 -4.855233428201E+00 1.713817945903E+01 8.792605634921E+01 3.432288098084E+01 2.032940694204E+01 -5.263148575764E+01 -8.828350965713E+01 -1.177679096386E+02 -8.649688320883E+01 8.394919836705E+00 -1.375182420889E+02 2.770944211779E+01 -1.823272565589E+01 -5.183873773531E+01 2.928227406361E+01 3.253867706716E+01 3.981959249394E+01 -6.459124351181E+01 5.230723015102E+01 7.525324689359E+00 -7.454268122800E+01 3.225269359224E+01 -9.782567148518E+00 6.742730791170E+01 -3.703951974817E+01 3.209267020511E+00 -3.798010707105E+01 3.194968617841E+01 -3.093281484066E+01 2.996579365207E+01 -1.075815285415E+01 8.496464586813E+01 4.074435252227E+01 -6.105877504785E+01 2.636848549379E+01 5.853951535376E+01 4.257486337897E+01 2.407909126086E+01 -6.370654376351E+01 1.194568942380E+01 -1.029531154119E+02 -6.959064323002E+02 -1.766415115523E+02 8.253785178394E+02