#BIOSYM hessian 1
@Type: Hessian Update
@Units
 distance: 	A
 energy: 	Kcal/Mol
#header
@natom 19

#label
L1      L2      L3      L4      L5      L6      L7      L8      L9      L10     L11     L12     L13     L14     L15     L16     L17     L18     L19

#element
Li Li Li Li Li Li Li Li Li Li Li Li Li Li Li Li Li Li Li

#matrix
57
 1.216442293247E+02
 4.683784212454E+01 1.159388443538E+02
 5.254386929322E+01 1.627350502416E+02 1.306096251386E+03
 -9.576711516851E+00 -4.296454928615E+00 1.981518524402E+01 1.420229098329E+01
 -3.483447922864E+00 1.272126695927E+01 9.317121374723E+01 2.636043615613E+01 3.859705837519E+02
 7.140058178982E+00 4.603973985299E+00 -1.425527093865E+01 -6.686004204062E+00 1.296987956810E+02 1.225420570535E+02
 -1.789379850313E-01 -4.127753844913E-01 -4.951270110770E+00 -2.023085602740E+00 2.602309240398E+00 1.272648331244E+00 1.967739247570E+01
 2.190927193241E+00 3.008732911940E+00 1.724888865789E+01 3.205115302941E+00 3.128173774682E-01 -2.334991592942E+00 9.377255335564E-01 1.765006167346E+01
 -1.010497213806E+00 -2.672122486962E+00 -2.109306583050E+01 4.152280286973E-01 -3.849255484903E+00 4.204496256058E-01 1.746121714864E+00 -8.004849924879E+00 1.475359735554E+01
 -2.067614899705E+01 1.036621152318E+01 -3.142169943606E+01 5.410115172236E-02 4.075490513972E+00 1.668638004825E+00 -3.750302062079E+00 -5.308011526012E+00 -1.067142942997E+00 3.190438495665E+01
 1.708002864555E+01 1.544551916929E+01 1.267812576868E+02 -5.106458996253E-01 -2.004635887473E+01 -9.490898963173E+00 -4.408719516095E+00 -2.388704445653E+00 -4.461955468408E+00 -6.542003225639E+01 4.422473455269E+02
 -2.120088186519E+01 1.142165753313E+01 -1.464146255627E+01 -1.172141915365E+00 -1.151060114178E+01 -6.692689430779E-01 -1.010641242483E+00 -3.381694296217E+00 4.305389263092E-01 -1.838744429359E+00 1.715796171410E+02 1.622598313621E+02
 -6.241351026419E+01 -6.360169740292E+01 -2.598021639877E+01 1.091613475995E-01 5.142631322672E+00 2.933028757756E+00 8.794915892074E-02 -1.305607405263E+00 3.440145056899E-01 -1.579122984008E+00 6.561807422693E+00 4.925662933448E+00 7.822618399333E+01
 -6.158400195717E+01 -7.198552633373E+01 -7.997032732904E+01 -5.725161455493E-01 1.618958076179E-01 4.217920787145E+00 1.864914178133E-02 -2.434605918030E+00 1.207295663556E+00 -8.611348666997E-01 -4.630278334087E+00 6.613424193888E+00 6.328760741189E+01 1.136824118992E+02
 -4.928078512549E+00 2.119271117221E+01 1.430571351752E+02 -1.742896198460E+00 -2.736489946415E+01 -9.876303611357E+00 4.513212504309E-01 1.823961483715E+00 -1.615744850430E+00 7.401391347255E+00 -2.969775597204E+01 -1.615016384762E+01 -3.202859439008E+01 -1.472361075318E+02 6.167633265895E+02
 -1.692197848764E+01 1.581315752135E+01 1.498877675134E+01 -5.040020658229E-01 -6.034447918495E+00 -1.901453368822E+00 -1.446752950560E-03 -8.284589300390E-03 3.954306802932E-02 1.456038986060E+00 -7.314873922618E+00 -2.701386211822E+00 1.672696964127E+00 1.212996681238E+00 -8.996903061325E+00 2.842199748037E+01
 1.183974597034E+01 -1.955110569094E+01 -5.137704536020E+01 -2.965115225851E-01 -5.131081493486E+00 2.765258117680E+00 -9.487110258983E-02 -1.058641492981E+00 8.446026044199E-01 2.281234426990E-01 -5.315799617404E+00 7.513170197077E-01 1.495161864478E-01 4.962325715280E+00 -6.358238381665E+00 -1.997716354253E+01 2.910034220624E+01
 3.685106100488E+00 3.069558950792E+01 1.720296004604E+02 -6.247869459162E-01 -2.409622082724E+01 -1.229785509702E+01 3.444092726725E-01 3.026683376893E+00 -3.072355166114E+00 6.359475452120E+00 -2.856611762125E+01 -1.683906843791E+01 9.134865867167E+00 -2.609798794423E+00 -3.690628929249E+01 6.743183758850E+01 -9.087895384608E+01 6.548115156889E+02
 4.476236888116E-01 1.524011307245E+00 9.998227511649E+00 2.948439087448E-01 1.271717523158E+00 -5.793556605759E-01 -2.432118501521E-02 5.890001544656E-01 -4.795528099601E-01 -2.547857360092E-01 1.308840504662E+00 -3.113829250692E-01 -2.360458287204E-01 -7.909443446187E-01 5.531795352774E-01 -6.018588267812E-03 -5.117704798398E-01 1.370595658686E+00 3.463423703288E+01
 3.221075148466E+00 6.666787309182E+00 3.823514695699E+01 1.079483329461E+00 5.382702466414E+00 -1.960345537761E+00 -1.852306468784E-01 2.297460556598E+00 -1.801240780879E+00 -9.984237225207E-01 5.794793156629E+00 -2.570700197940E+00 -1.939956366374E+00 -4.297408126074E+00 3.608483362019E+00 -1.942344761925E-03 -2.053287485220E+00 5.683534957865E+00 8.205340184922E+00 2.740721988300E+01
 1.849597379013E+00 3.450103215214E+00 1.946633437527E+01 7.057604406481E-01 3.066776354906E+00 -1.414503962596E+00 -9.693207074359E-02 1.334356032078E+00 -1.528955559159E+00 -6.157314226627E-01 3.194917022278E+00 -1.758624741436E+00 -1.019200222976E+00 -2.337468744583E+00 1.722283770723E+00 -1.015975774246E-01 -9.980104899118E-01 3.332181105459E+00 -4.590141062656E+00 1.550667183885E+01 2.592077258097E+01
 1.159396661666E+00 1.892515079371E+00 1.331771732501E+01 4.472495899595E-01 2.065955093329E+00 -3.691013628173E-01 -5.079963677192E-02 8.724916573315E-01 -7.909882074310E-01 -5.893589616942E-01 2.351012303125E+00 -5.886843075670E-01 -1.087798465393E+01 9.781865448386E+00 -5.828853738290E+00 -3.081623394236E+00 -3.616420721568E+00 3.403823850815E+00 2.598076710279E-01 1.461881725569E+00 9.237154259909E-01 2.278549543362E+01
 -2.421945306031E+00 -4.675462160196E+00 -2.602413876598E+01 -9.561353297197E-01 -4.328576084461E+00 1.367616684672E+00 1.247292261111E-01 -2.058151694262E+00 1.672112219451E+00 1.031740316624E+00 -4.511789022849E+00 1.805874488719E+00 1.218422799414E+01 -8.356414909257E+00 4.818974633477E+00 -2.820369809722E+00 -1.177002026833E+00 -2.446933818492E+00 -6.800113099350E-01 -3.145400159425E+00 -2.029675328059E+00 -1.553325405743E+01 2.737712436381E+01
 5.879171016624E-01 2.140228989936E+00 3.102634533587E+00 2.087291230511E-02 8.605123257030E-01 4.475554309536E-01 7.848698183013E-02 2.893994945100E-02 2.099502469453E-02 2.444291619810E-02 1.012242218391E+00 8.758202472628E-01 -7.998559887704E+00 5.739785956909E+00 -2.461589123271E+00 1.911999413924E+00 8.901873548075E-01 1.239465897145E+00 1.236418657583E-01 -9.832086969678E-02 -1.556043221755E-01 5.911063721999E-01 -2.353545592337E-01 1.247103571028E+01
 -6.994392950557E+00 -2.111721335601E+01 -1.506052679739E+02 -1.735483995040E+00 7.670429862174E+00 1.161408616222E+01 3.789552647297E-01 -7.119718768422E+00 5.914501142918E+00 -7.347019930355E-01 1.123117548109E+01 1.634366059280E+01 2.528318421768E+00 2.479515386221E+00 2.050111757485E+01 3.878553535649E+00 3.103580580840E-01 2.085576246076E+01 -2.218356857225E+00 -1.059966457538E+01 -6.856195252406E+00 -4.007218226621E+00 8.688519597888E+00 -1.925464908391E-01 1.078775454525E+02
 4.445476391813E+00 -1.704418548222E+01 -1.570946917998E+02 1.723298688687E+00 2.913324341682E+01 3.148133423319E+00 -1.093177308644E+00 2.030263080315E+00 -6.589816871291E-01 -5.078011793017E+00 3.601475336303E+01 7.294849529407E+00 -5.802838148000E+00 -1.210672257466E+01 4.113058957529E+01 5.441184135357E+00 -4.986296454809E+00 4.587448963743E+01 9.857971684468E-01 3.076553821681E+00 1.912932048453E+00 1.048790226623E+00 -2.116421710428E+00 -1.622101013148E+00 1.473541760590E+02 5.246327003573E+02
 1.389421132158E+00 2.262868493284E+01 2.055897901350E+02 -4.792687778706E-01 -3.933280856410E+01 -1.145940764348E+01 -2.393235347639E-01 5.290355065321E+00 -5.552984818372E+00 6.351774320799E+00 -4.527181434586E+01 -1.838441808013E+01 6.152854684795E+00 1.332561357849E+01 -5.796157464968E+01 -9.269426304748E+00 5.842315330793E+00 -6.050867052702E+01 2.065696287090E+00 8.369293210536E+00 4.991216272559E+00 2.771829539187E+00 -6.860728023491E+00 1.159838173239E+00 -1.986793609362E+02 -2.093697146097E+02 4.912322830070E+02
 -3.398831986731E+00 -6.997679345937E+00 -3.751335947022E+01 -1.990086889668E+00 -2.319302605138E+01 -4.760846601135E+00 -9.110892306051E-02 -1.628978584794E+00 1.275507201767E+00 -2.484655199401E-01 2.097073434093E-01 3.088448660458E+00 -3.541174446461E-01 3.162519258185E+00 1.730354819178E+00 -8.581949095990E+00 1.211286075750E+01 -7.884347674606E+01 -6.139002951128E-01 -2.694292166368E+00 -1.643761974923E+00 -9.895331140068E-01 2.133763528689E+00 -3.275503770076E-01 1.684546706380E+00 -7.184932920754E+00 6.000661968865E+00 1.433582371546E+01
 -2.097691195790E+00 -1.331004686501E+01 -6.506018407378E+01 -2.354554883768E+01 -3.654865015926E+02 -1.057226058074E+02 9.920542993459E-02 -3.296147185071E+00 2.737653699234E+00 -3.638652980975E+00 1.902709764879E+01 1.074428993919E+01 -4.247010854884E+00 -9.461686868995E-01 2.616215344432E+01 1.504643942018E+01 -8.133877646531E+00 1.027589830829E+02 -1.201288419895E+00 -5.225830661991E+00 -3.064873344485E+00 -1.819532493560E+00 4.118216880386E+00 -5.324451201179E-01 -3.764661793752E+00 -2.544563061751E+01 3.430135478798E+01 1.221713515834E+01 3.773151502741E+02
 -3.652616029409E+00 -3.827962122618E+01 -1.912319896081E+02 -6.317703397841E+00 -8.141720409940E+01 -1.965925099424E+01 -2.884617015989E-01 -4.951179156328E+00 4.387925130996E+00 -7.750170271172E+00 3.447363725345E+01 2.052862364973E+01 -9.288572978034E+00 3.623862908323E+00 4.498703269532E+01 -6.872490386410E+01 8.572721750759E+01 -5.994876410542E+02 -1.899913447584E+00 -8.582654828125E+00 -4.771015248492E+00 -3.073363459902E+00 6.554860257423E+00 -1.850035915867E+00 -1.983685513145E+01 -5.777681485575E+01 7.642434498669E+01 8.417159320903E+01 6.129730564582E+00 6.259763666877E+02
 -3.402630129257E+00 2.470461188316E+00 1.256111187688E+01 -2.288151130104E-01 -5.613453192958E+00 -1.841557348390E+00 2.106747506643E-01 7.645347292396E-01 -4.424210090719E-01 -7.222378783242E+00 5.533702062770E+01 2.032680583592E+01 -3.863765553663E+00 -1.537757568596E+01 5.180365292151E+01 -2.158325602736E+00 -1.533615295731E+00 -7.542637719431E+00 2.435713734550E-01 1.196652692395E+00 6.535817227581E-01 3.652309405816E-01 -9.518316886809E-01 3.357079051910E-01 2.183900286020E+00 6.909369087350E+00 -1.099215600737E+01 -4.864465238940E-02 5.579360058314E+00 9.330229781698E+00 1.740767646421E+01
 -6.877843637631E+00 -1.900325884526E+01 -8.488589742351E+01 4.150155775059E-02 1.400728244519E+01 7.448443922717E+00 -2.414597472382E-03 -3.255485758219E+00 2.788002454206E+00 5.843373611553E+01 -4.216717653472E+02 -1.551355599939E+02 -1.891914355452E+01 -3.351006784418E+01 1.685941447327E+02 5.445143659872E+00 3.692759043721E+00 2.086935981824E+01 -1.277638322093E+00 -5.540260756275E+00 -3.190000150968E+00 -2.061847075643E+00 4.266024512555E+00 -7.875724963318E-01 -4.575979004497E+00 -2.624426592671E+01 3.170243466014E+01 2.448359152379E-01 -1.315786231106E+01 -2.480435580509E+01 -3.937370903858E+01 4.643889704701E+02
 -1.337008251564E+01 -4.453117140445E+01 -2.029014351389E+02 1.595752440931E+00 3.470307582926E+01 1.482239393531E+01 -1.398835349394E-01 -5.150356473821E+00 4.137285134201E+00 1.398790684159E+01 -1.269414222772E+02 -4.013826251785E+01 4.931236756757E+01 1.501284019020E+02 -5.441071689013E+02 1.185067497262E+01 8.747364958465E+00 4.862857690709E+01 -1.749345487997E+00 -8.757723577547E+00 -4.524113499617E+00 -2.775885655743E+00 6.473368102033E+00 -1.679495200878E+00 -1.702854290888E+01 -6.121758923292E+01 7.709065543985E+01 -1.099608849571E+00 -3.263688937512E+01 -5.869636710813E+01 -6.537793631517E+01 -2.598342266991E+00 6.025812417145E+02
 4.839103773183E+00 1.390569595269E+01 1.051800365546E+02 7.077014536535E-01 -5.766312460884E+00 -8.418441037405E+00 -5.963755644692E-01 4.664717811386E+00 -3.914478886799E+00 9.301971537310E-01 -8.225723364958E+00 -1.170061936079E+01 -2.077588028426E+00 -1.511900879914E+00 -1.434669922340E+01 -2.222409706088E+00 1.538385046006E-01 -1.537681316390E+01 1.358551980881E+00 6.916539948069E+00 4.303714168400E+00 2.474145911306E+00 -5.509630358482E+00 -1.619410236830E-01 -6.749371788722E+00 2.955539332897E+01 -1.480991574034E+01 -4.341482706965E-01 2.538088961077E+00 1.442996102879E+01 -2.097157042045E+00 3.466010042632E+00 1.145609404179E+01 4.575880148162E+01
 5.820736461096E+00 -2.481726865883E+01 -2.390407305492E+02 3.105813723064E+00 4.340319668201E+01 5.546500021217E+00 -9.405437435448E-01 2.804289026142E+00 -6.206369049013E-01 -8.111572689411E+00 5.320349809468E+01 1.161338921772E+01 -8.109763362920E+00 -1.801145791515E+01 6.144449647795E+01 7.512268317789E+00 -7.460373492457E+00 6.807068166750E+01 1.353448821569E+00 3.951395872471E+00 2.851735796337E+00 1.566047576605E+00 -3.024899374004E+00 -1.975707964204E+00 -5.575249155134E+01 -7.479873160634E+01 1.061101439190E+02 -1.131109036283E+01 -3.772193566234E+01 -8.590313777382E+01 1.145684967195E+01 -3.868962043430E+01 -9.008502715547E+01 -1.110068838394E+02 6.795734320454E+02
 2.650465807428E+00 2.320390835023E+01 2.105261035377E+02 -6.622706437204E-01 -3.569506229514E+01 -1.139340399755E+01 -5.144391576160E-01 5.581371704524E+00 -5.722715903639E+00 6.040985562788E+00 -4.120635030809E+01 -1.816731403586E+01 5.249882227848E+00 1.154778534104E+01 -5.413672355161E+01 -8.323217840092E+00 4.795259499184E+00 -5.525367334991E+01 2.071733254304E+00 9.095901717661E+00 5.134377024922E+00 2.791826891556E+00 -7.162680594849E+00 9.605533190360E-01 1.638513159486E+01 6.916671849010E+01 -9.894766794936E+01 5.235222688618E+00 3.129836496119E+01 7.018398773570E+01 -1.076936207661E+01 2.838490706015E+01 7.089226260365E+01 1.097122236700E+02 -2.698591225930E+02 4.653017910061E+02
 3.795624456845E+00 6.857498477639E+00 3.922593034627E+01 1.182323788942E+00 3.665348307505E+00 -3.734484135449E+00 -2.297512667652E-01 2.665029877676E+00 -2.403086694402E+00 -1.021641075150E+00 4.080546724551E+00 -3.585838724592E+00 -2.621303478180E+00 -4.770834472898E+00 -1.405183908390E+00 1.239740592838E-01 -1.199901415463E+00 4.675806700095E+00 1.640689983728E+00 4.015047270352E+00 3.048795109374E+00 1.544099031902E+00 -3.822414641632E+00 8.997254828599E-02 -1.235297748761E+01 5.769994549025E+00 4.713325085169E+00 -2.505955092681E+00 -3.939066102766E+00 -4.966700716726E+00 3.297628622648E-01 -4.481076776333E+00 -4.946318851231E+00 5.420267632016E+00 5.896706066147E+00 1.182843537905E+01 1.203431955864E+02
 -4.640420813465E+00 -1.878772368669E+01 -1.342645478144E+02 -1.522848301467E+00 -1.156092666941E+01 1.246940202432E+00 3.445688243073E-01 -2.626409461748E+00 2.477030746164E+00 1.883739388697E+00 -1.431789917149E+01 9.838556172860E-01 2.864047333473E+00 8.371491578636E+00 -1.812246687203E+01 -1.185505548129E+00 5.703222129799E+00 -1.887460639737E+01 -9.808619914420E-01 -5.881772938609E+00 -2.831773585787E+00 -1.980829027150E+00 3.507391257840E+00 -1.292775340736E-01 1.634591685555E+01 1.294316487102E+01 -2.351958881730E+01 5.001840704469E+00 9.274776521526E+00 2.304271344311E+01 -3.044625096840E+00 1.072757600451E+01 2.379316075931E+01 -1.182577882383E+01 1.932664312881E+01 -2.233298199228E+01 2.223136663354E+01 1.071071320607E+02
 -3.062868665263E+01 -1.603162615501E+02 -1.267618580111E+03 -1.016302591935E+01 -8.794763521433E+01 3.812848452465E+00 4.815482971165E+00 -1.712657724289E+01 2.144578117769E+01 1.369264635908E+01 -1.170986275767E+02 -3.631209180511E+00 1.311291781177E+01 6.906028945434E+01 -1.486393379679E+02 -1.309237633259E+01 5.037835471746E+01 -1.767948752085E+02 -1.002025268518E+01 -3.686867063328E+01 -1.890374381716E+01 -1.277674502426E+01 2.542103704755E+01 -3.359577475000E+00 1.495054050061E+02 1.626379708821E+02 -2.065610833353E+02 3.982653575196E+01 6.333308282634E+01 1.913914512642E+02 -1.988415898061E+01 8.093075660127E+01 1.947521866090E+02 -9.989476900766E+01 2.477800233566E+02 -2.185637525608E+02 -8.344004753577E+01 1.357416361765E+02 1.322047560863E+03
 -4.381352495241E-01 8.711721406756E-01 1.927250500643E+01 6.755209304858E-01 4.675547151243E+00 1.636289655112E+00 -7.827683874585E+00 6.663392826607E+00 -8.165607666766E+00 -8.051439042595E-01 3.769809305944E+00 -1.280651841685E+00 -1.221346811023E+00 -2.640579823463E+00 2.417520531659E+00 1.803003277470E-02 -1.251977785762E+00 3.971567266921E+00 -1.226575310426E+01 1.145692901171E+01 1.407833197226E+01 8.369305094116E-01 -1.726629579847E+00 1.049532333282E-02 -5.846407308466E+00 6.298797717942E-01 6.418189315659E+00 -1.713201347829E+00 -3.407102537616E+00 -5.609554032971E+00 9.142903392439E-01 -3.513012858961E+00 -5.238592630683E+00 3.303495788539E+00 1.204006848893E+00 6.484594785083E+00 -1.010957538200E+00 -6.704425135270E+00 -1.782434104441E+01 3.006226819801E+01
 -2.735546960401E+00 -2.225395829859E+00 8.396236684654E+00 1.054998581910E+00 -1.210727706831E+01 -3.137639383171E+01 5.385401242102E+00 -3.061144237065E+00 4.398996486054E+00 1.078287044418E-01 9.257313669334E-01 -1.387324069239E-01 2.893688174450E-01 -7.679868539402E-01 1.639287438724E+00 3.545484624208E-02 -6.174176226450E-01 1.614874648638E+00 9.809006953990E+00 -5.928412603048E+00 -8.654279431478E+00 1.332950999776E-01 -6.593944835786E-01 -2.178019155680E-03 -2.604851048619E+00 4.943636621181E-01 -2.518113677862E+00 -5.426153881997E-01 1.977053186075E-01 -1.343131341453E+00 6.885445248464E-02 -5.455604769958E-01 -2.021950542810E+00 2.249428591344E+00 5.553420157053E-01 -2.173855675785E+00 -2.479822246294E+00 -5.362180768610E+00 -6.774245257487E+00 -1.171418662561E+01 3.579079294711E+01
 -5.657199253051E-01 2.964806683316E+00 2.839138560636E+01 2.938419641845E+00 -2.939734845423E+01 -8.098533175474E+01 -7.328436949982E+00 6.484857503297E+00 -7.569107440061E+00 7.623114340597E-02 2.363270987760E+00 -1.479663327387E+00 3.457592313017E-01 -1.823876142478E+00 2.045570719157E+00 -6.664401095777E-02 -1.722935109575E+00 2.625743426085E+00 1.349062797917E+01 -7.555731891354E+00 -1.153628153181E+01 7.021453427368E-01 -1.590244862432E+00 1.943226109838E-01 -3.891102435596E+00 3.866257926210E+00 2.367024856084E-01 -1.363396839463E+00 -1.382798754093E+00 -3.383795370845E+00 3.195552519914E-01 -2.252594887414E+00 -4.369712419351E+00 3.164775135259E+00 4.394347398961E+00 1.616129685050E+00 6.563734562012E+00 2.212052382901E-01 -3.180044874818E+01 1.632672642393E-01 2.035177386240E+01 1.418643668415E+02
 -5.244825661627E+00 -1.245603558059E+00 -2.261839297160E+01 -9.841181335368E-01 -4.765301297864E+00 1.011612724961E+00 -6.071295350484E+00 -6.076542131770E+00 7.321646121339E+00 1.055411529875E+00 -5.128734420387E+00 1.394364741317E+00 1.302198810594E+00 3.331469308865E+00 -3.716645729393E+00 2.191772625949E-02 1.652219470849E+00 -5.814734747730E+00 -1.379938353628E+01 -1.175541980738E+01 -1.275645993029E+01 -1.040002847530E+00 2.307818655956E+00 -5.437035192041E-02 7.964740414478E+00 -3.807007591187E-01 -7.232040337596E+00 2.347471547178E+00 4.263846797375E+00 7.702644157262E+00 -1.289327718208E+00 4.678183935714E+00 7.208578611978E+00 -4.462589473647E+00 -1.331543448454E+00 -7.096164380042E+00 -7.500420056024E+00 7.738399552960E+00 2.145340605721E+01 -1.847779749125E+00 -8.782244542369E-01 -1.501669152079E+00 2.863054166378E+01
 4.262971116610E+00 -2.262528944280E+00 9.621271871145E+00 -1.241402938687E-01 -5.976466001562E-01 -4.616633616237E-01 -4.845657072776E+00 -2.364687022206E+00 3.688770296437E+00 3.193095452024E-01 -1.053253886859E+01 -3.104144583249E+01 2.713052116616E-02 -9.208143808702E-01 7.210157579713E-01 -1.980669903189E-02 -4.996808383835E-01 7.474005682297E-01 -9.081946953688E+00 -4.943718966047E+00 -6.847809693004E+00 1.673416734194E-01 -7.946874750162E-01 -1.853769317999E-01 -3.577812280404E+00 1.639594338416E+00 -3.976092781683E+00 -3.501278949754E-01 6.989290548203E-01 -2.751083232640E-01 -3.976220873750E-01 -1.337079503517E-01 -9.950193052753E-01 3.395807493812E+00 1.782927026811E+00 -3.509912330076E+00 5.303098315569E+00 -6.041327408906E+00 -7.660328435172E+00 9.372422561439E-01 -4.701999243219E-01 6.259742747687E-01 5.280620841132E+00 3.459487938990E+01
 2.653007728924E+00 2.690936057586E+00 1.541755700100E+01 3.266726944862E-01 3.050460968037E+00 -1.197916557085E-01 6.339646329262E+00 4.762411384314E+00 -6.254500717581E+00 -3.980821761016E-01 -2.669761653675E+01 -8.492142401602E+01 -2.532326829779E-01 -3.210528983894E+00 4.003485906175E+00 -3.660482218542E-01 -2.077419920562E+00 4.029616729905E+00 -1.139283310599E+01 -7.216894822930E+00 -8.952956200707E+00 4.266245617197E-01 -4.045952082474E-01 3.108161442340E-01 8.865460197785E-01 -8.689324971868E-01 4.994146601388E+00 -1.493640342278E+00 -2.307066497573E+00 -5.713398443941E+00 1.343244800862E+00 -2.689132619507E+00 -5.644351600504E+00 -1.677365428500E+00 -7.547673303400E-01 5.337730665592E+00 -1.743860453766E+00 1.498573205671E+00 -1.937163361795E+01 6.103331098702E-01 4.558446051097E-01 1.159390937504E-01 5.553926503294E+00 1.005148843246E+01 1.914182560430E+02
 -2.762964329963E+00 -4.958194049832E+00 -2.728102969510E+01 -7.194462331655E-01 -2.325464542638E+00 2.028617766571E+00 2.955181163581E-01 -2.016916257406E+00 1.936727723431E+00 6.238613967311E-01 -3.087414063712E+00 2.045433723758E+00 3.339034382038E-01 2.739314225318E+00 -3.074398874207E+00 -2.313995202689E-01 1.244779235827E+00 -3.624896046932E+00 -1.114163234952E+00 -3.064064824537E+00 -2.222436034469E+00 -7.941996309492E+00 1.069368505426E+01 6.175105688396E+00 8.964532977522E+00 -3.457416647019E+00 -1.244003687611E+00 1.848554378212E+00 2.236951529732E+00 3.909094799757E+00 -1.954386966459E-01 3.042390032431E+00 4.140843464323E+00 -7.742465883931E+00 -1.374672772527E+01 -2.001199783581E+01 -5.003230870338E+01 -4.815919230749E+01 4.214861471538E+01 -1.941930860781E+00 -7.239815050688E-01 -2.914794054014E+00 2.370473603825E+00 -4.917558664698E-01 -1.408017727552E+00 5.807914230012E+01
 -2.285978814504E+00 -2.720180576707E+00 -2.137830237251E+01 -5.257037630911E-01 3.244964908022E+00 3.252450257619E+00 5.086683895216E-01 -2.861858184226E+00 2.746684038628E+00 -2.343710090355E-01 2.388229536700E+00 3.575614387739E+00 -1.129429989453E+00 -2.735384400636E-01 5.420657780214E+00 8.413257848145E-01 9.624872301816E-02 2.322134184273E+00 -1.620700492376E+00 -4.321542556169E+00 -3.015716423207E+00 6.625694183855E+00 -5.295777852072E+00 -7.346383877874E+00 1.016809320124E+01 -5.843525519479E+00 1.161949114097E+01 1.009670595710E+00 -3.189210672503E+00 -5.445476436765E+00 1.605612286670E+00 -1.333492750888E+00 -5.081930639223E+00 -1.697006321432E+01 -6.701546269230E+01 -1.051055019112E+02 -5.718125420523E+01 -5.366226704236E+01 3.724450687926E+01 -3.089426807702E+00 4.340516026852E-01 -3.308403563897E+00 3.345897094146E+00 1.294216868633E+00 -2.764575457472E+00 5.565282709600E+01 1.268552193070E+02
 -5.688393255704E-01 4.720082698862E-02 -2.356125771741E+01 -1.354539245624E-01 9.302873607046E+00 4.631518054226E+00 6.594523299966E-01 -2.971057064800E+00 2.629422475463E+00 -1.324909664341E+00 9.374148870933E+00 6.348270162459E+00 -4.634276790154E+00 -4.353057440036E+00 -3.935670327904E+01 2.168918857531E+00 -1.555357702708E+00 1.298294509225E+01 -1.346741610469E+00 -5.071456483913E+00 -2.954178106512E+00 4.846099776429E+00 -3.511059341631E+00 -6.159700292670E+00 4.440711016960E+00 -1.135837629641E+01 2.516064425396E+01 -7.894385374042E-01 -8.400102308563E+00 -1.683136603244E+01 3.318019785329E+00 -6.632701705537E+00 -1.544447483346E+01 -2.277399216634E+01 -1.314309776627E+02 -2.049517094632E+02 8.103559890286E+00 1.897936915475E+01 1.529206675728E+01 -3.331796530592E+00 1.769502541955E+00 -1.341110465406E+00 3.325177563119E+00 2.064856611427E+00 -2.230675412666E+00 2.129217773182E+00 1.032947231510E+02 2.799566943527E+02
 6.951102764810E-01 1.708966496169E+00 1.123097964194E+01 2.484079252347E-01 -1.022657871926E+00 -1.191760932827E+00 -1.627187916874E-01 1.056349095333E+00 -8.238335165645E-01 2.250781782831E-01 -1.086948792317E+00 -1.349162699882E+00 -2.419983964444E-01 -1.392034073175E-01 -1.687781779808E+00 -4.142773933521E-01 -2.349987451542E-01 -5.140707960525E-01 5.812023773934E-01 1.634659244661E+00 9.927846607586E-01 -1.197949294554E+00 -3.032454743124E+00 -1.460714013972E+00 -9.076050756487E+00 2.570726717937E+01 3.466633646766E+01 -3.727542275361E-01 8.908185769552E-01 1.522143109594E+00 -2.964953566788E-01 5.791293144401E-01 1.226849357183E+00 2.009007611634E+00 3.055164843533E+00 -3.404975440227E+00 -1.380996437323E+00 3.571882989763E-01 -1.137445696919E+01 9.509552358027E-01 -4.258679141882E-02 6.064863728105E-01 -1.149369973860E+00 -2.349865857016E-01 4.525927545883E-01 -4.725101288950E-01 1.020993997829E+00 2.163957161556E+00 1.064923177305E+01
 -3.177365412461E+00 -4.615687305119E+00 -3.769653138393E+01 -4.415081227938E-01 5.421052460219E+00 3.429501466479E+00 5.663940734160E-01 -2.858892648876E+00 2.582561123341E+00 -8.017227650070E-01 5.363057596729E+00 4.764751506774E+00 1.725426308287E-01 -4.226079225312E-01 8.642711255865E+00 1.948592039365E+00 -8.149261633573E-01 1.137530826639E+01 -1.261501693697E+00 -4.649457751065E+00 -2.754005403449E+00 -3.196310188615E+00 2.231181527425E+00 -1.262340528950E+00 2.992359474221E+01 -9.824904816477E+01 -1.259682459801E+02 1.990949389691E-01 -4.903210803343E+00 -9.963190355529E+00 2.134747177764E+00 -3.489367175430E+00 -9.326475409991E+00 -5.318625956374E+00 -1.390963859455E+01 1.406098572945E+01 -1.874160444221E+00 3.723479539969E+00 3.622933026132E+01 -2.875069915103E+00 8.638612094879E-01 -1.537034503350E+00 3.097622961994E+00 1.082291121847E+00 -1.807483656440E+00 1.754842960638E+00 -2.807377371170E+00 -6.174674527214E+00 -2.349715783604E+01 9.205532831964E+01
 -3.754990242691E+00 -8.137337505732E+00 -5.912613653564E+01 -1.194905753367E+00 6.452759555380E+00 6.073465871747E+00 5.800175807199E-01 -4.573856717833E+00 3.969710320055E+00 -6.648620261749E-01 6.696740869602E+00 7.944613833658E+00 5.494732390753E-01 2.288509428210E-02 1.240021618340E+01 3.192979472384E+00 3.794878046273E+00 -3.536341298933E+01 -2.164905867800E+00 -7.387109024474E+00 -4.666932744417E+00 -4.306230997147E+00 4.683581509860E+00 -1.813992642748E+00 4.660750433691E+01 -1.567742999750E+02 -2.067568423078E+02 1.052363200288E+00 -5.583996927836E+00 -1.272453110196E+01 2.272048483587E+00 -3.803688049390E+00 -1.167912607465E+01 -6.390794871375E+00 -2.169604232455E+01 1.830497010808E+01 -8.066711511273E+00 9.594811498038E+00 5.637505259702E+01 -4.808495063470E+00 9.138987363178E-01 -2.424898283965E+00 5.597108460557E+00 1.302009504880E+00 -2.439385918031E+00 3.313620174377E+00 -2.281712504884E+00 -7.921978570093E+00 -3.584092199765E+01 1.362558924327E+02 2.723117911438E+02
 -2.852134690368E-01 -8.525651055456E+00 -8.073903465134E+01 4.325162116357E-01 1.055589323070E+01 3.807789009741E+00 2.440377623067E-01 -8.418783501178E-01 1.201530174468E+00 -1.992027209521E+00 1.238029971945E+01 5.165476059179E+00 -1.233082611087E+00 -3.674157038506E+00 1.638860623943E+01 1.800757236107E+00 -1.806963873549E+00 1.634466823160E+01 -8.287021498279E+00 -9.588484672047E+00 2.896453052108E+00 -4.276608368241E-01 1.243083690222E+00 -1.831027422164E-01 -7.876169383004E+00 -2.417172226845E+01 2.825015647241E+01 -2.185837568522E+00 -8.664975357561E+00 -2.122889475096E+01 3.556567809393E+00 -8.329257750177E+00 -2.160939776383E+01 -3.055647487920E+01 1.260247771159E+02 -7.984979641177E+01 -4.473403680029E+01 3.632024068959E+01 1.146950820608E+02 -9.742058411942E-01 -1.681526609667E-01 -1.027932540480E+00 9.821211853347E-01 1.858169314120E-01 -7.592829377309E-01 7.685068545549E-01 -4.561992499303E-01 -3.126517670364E+00 5.245877102509E-01 -2.164277825798E+00 -3.198657219977E+00 7.851297827774E+01
 -4.757888454483E+00 2.524823750169E+01 2.468779847621E+02 -2.792683504355E+00 -4.758009886721E+01 -8.304261243744E+00 7.166017657368E-01 -9.244376103424E-01 -9.819611016018E-01 8.562618461362E+00 -5.710653626768E+01 -1.472869726620E+01 8.723923125975E+00 1.940174298645E+01 -6.749918252433E+01 -8.731733917685E+00 8.282984809500E+00 -7.308002019654E+01 -8.558306576693E+00 -9.870451379182E+00 3.039994004293E+00 -5.277739939593E-01 4.786419289720E-01 1.888567103292E+00 5.199800597889E+01 8.112879067307E+01 -1.193137070407E+02 1.119218726894E+01 4.154933599761E+01 9.347080526036E+01 -1.284484512848E+01 4.127153462625E+01 9.712654277581E+01 1.243713939658E+02 -6.109612134441E+02 3.709326417634E+02 2.470847156956E+01 -4.135901456468E+01 -2.748867281619E+02 9.798036805882E-01 -1.306689815385E+00 -2.872921916421E+00 -8.904780347796E-01 -9.342811399460E+00 2.584117684362E+01 3.872911257389E+00 8.602638324671E+00 2.128577312046E+01 -4.159106056782E+00 1.713026055604E+01 2.525745427337E+01 -1.448421335892E+02 6.351488058303E+02
 4.993162466827E+00 -1.555664439905E+01 -1.446611174907E+02 2.180192046123E+00 3.018952315499E+01 2.786971595672E+00 -1.105678394287E+00 3.148029261062E+00 -1.191665510953E+00 -5.456980380313E+00 3.731549604804E+01 7.078943726849E+00 -5.820422777796E+00 -1.263582808495E+01 4.200130696271E+01 5.656487785807E+00 -4.818824107715E+00 4.825059609559E+01 5.085796737593E+00 7.873539536439E+00 1.049468902372E+00 1.155716187855E+00 -3.286556403735E+00 -1.812995267423E+00 -4.586375621598E+01 -4.659618293500E+01 7.194538564372E+01 -8.115095568206E+00 -2.685061382492E+01 -5.958078403477E+01 7.044045847603E+00 -2.781908369702E+01 -6.224602927280E+01 -7.309192223060E+01 4.140647978134E+02 -2.517197493240E+02 4.063900978211E+01 -9.925164198105E+00 1.248676375003E+02 1.449425592278E+00 6.776125525442E-01 4.870511432063E+00 -1.800019017885E+00 2.486401489079E+01 -8.912144969616E+01 -5.027237859132E+00 -8.652608199028E+00 -1.338015769175E+01 2.804759743142E+00 -1.081168839676E+01 -1.782627586159E+01 4.613566757181E+01 -4.113257174346E+02 3.924697181245E+02