#BIOSYM hessian 1
@Type: Hessian Update
@Units
 distance: 	A
 energy: 	Kcal/Mol
#header
@natom 19

#label
L1      L2      L3      L4      L5      L6      L7      L8      L9      L10     L11     L12     L13     L14     L15     L16     L17     L18     L19

#element
Li Li Li Li Li Li Li Li Li Li Li Li Li Li Li Li Li Li Li

#matrix
57
 2.337300567800E+01
 8.886902158249E+00 3.765500964716E+01
 5.842761169298E+00 4.617980794519E+00 1.460431350851E+01
 3.162770752953E+00 -3.455194627683E+00 3.498467965272E+00 5.756211944468E+01
 -2.734903002581E+01 1.617831048921E+01 -2.005326261529E+01 -1.993179353029E+02 1.106719766274E+03
 1.459230011472E+00 7.326124978619E-01 2.298663271808E-01 2.777146971927E+00 -5.780092787190E+01 3.348155386365E+01
 -4.343932013212E-01 3.119296115659E+00 2.001274227793E+00 1.686522611355E+00 -9.625214253991E+00 1.131301218938E+00 4.384896515331E+01
 3.983449042003E+00 -4.172637341005E+00 -2.435250991804E+00 1.287419695162E+01 -6.652697154655E+01 2.352795414847E+00 1.933006016663E+00 1.558116671842E+01
 1.086936337215E+00 -1.230465077529E+00 -3.023174500770E+00 1.477193128129E-01 3.898516043207E+00 -8.085698945302E-01 -1.049742208417E+01 2.453290214481E+00 1.847509079411E+01
 -3.298023720749E+00 2.254313350275E-02 9.376246981524E-01 3.633468420525E+00 -1.078015857637E+01 -5.241443190451E-01 1.186888395488E+00 7.130287367802E-01 6.371509945513E-01 2.287055200791E+01
 3.715223588660E-01 6.724238951913E-02 9.259120032798E-01 3.004973382236E+00 -1.486341213701E+01 3.402594961072E+00 2.623337102713E-01 2.185023644301E+00 1.015492014346E+00 2.837758830447E+00 3.039486156669E+01
 1.564679151814E+00 1.291035780445E+00 -7.417059672813E-01 2.396302020607E-01 6.847078778695E+00 -2.811032940606E+00 -5.263195944208E-01 2.428924687854E-01 -1.333222130205E+00 -1.617429530021E+00 -3.323897495815E-01 2.720127100315E+01
 -9.350298772571E-01 6.308368838618E-01 -2.777303396610E-01 -1.365070185934E+01 5.954033066770E+01 -4.200753593206E+00 7.310304009323E-01 -4.287696007644E+00 -1.867471181383E+00 3.914430284601E-02 -4.534199745503E-02 -9.653530860402E-01 3.972167164287E+01
 -2.389376568122E-01 -5.244914771334E-02 8.199957591073E-02 -5.997969374844E+00 2.327931407743E+01 -7.996586835306E-01 1.246661972886E+00 -2.075817393984E+00 2.710152907682E-01 -1.575875144656E+00 -1.422688726383E+00 2.175374065677E+00 7.798851803164E+00 2.335247045142E+01
 -1.343716291468E+00 -1.872542338485E-02 -2.092515862840E+00 -9.772463934010E+00 5.149068113821E+01 1.905877817236E+00 1.313123597545E+00 -3.169529562045E+00 -4.798047697618E-01 -1.645128683649E+00 6.458182794688E-02 -2.483515876101E-01 6.485364706277E+00 5.624248916843E+00 2.023121430555E+01
 -1.946213802594E-01 4.304840772552E-02 6.462258911389E-01 7.114675614210E-01 -4.096013973458E+00 -2.516297709970E-01 2.104189348290E-01 -7.031838758905E-01 -8.137753736744E-01 -1.440054075352E-02 -1.551516866332E+00 1.139661019802E+00 -1.582084055173E+00 1.584329166912E+00 -1.206930483169E+00 1.101943214946E+01
 -9.406019445078E-01 -3.686320067934E+00 7.645367095755E-01 8.383944744524E-01 -2.939661327322E+00 1.651058859607E+00 3.465439077840E+00 -1.856691109018E-01 -1.371072195312E+00 3.503056345515E-02 -2.227602405548E+00 2.836919819955E+00 1.178373655403E-01 -3.069373280410E+00 9.275741474397E-01 6.698857563648E+00 3.842873374757E+01
 1.621252353779E-01 1.402389699026E-01 -1.019053206741E+00 -3.193107999331E+00 1.489136535006E+01 -3.174057033658E+00 3.801786869893E-01 5.656536805318E-02 -7.466792134980E-01 -1.865954305882E+00 -2.714307684567E+00 -1.199618129547E+00 5.113266644396E-01 2.516570757375E+00 -2.558639406457E+00 2.064203556458E-01 -1.725569652819E+00 1.870345975179E+01
 -9.667127303472E-01 -1.561209222810E+00 4.874629006060E-01 1.931451368830E-01 -9.765010652683E+00 1.605431740557E+00 -9.908550902141E-01 -1.437296351266E-02 6.685292239633E-01 7.496071290424E-01 6.245297928537E-01 -3.057429980490E+00 -5.731505845121E-01 -3.406314787863E-01 -1.763145936167E+00 -3.133463536228E+00 -1.267330972384E+00 -3.787659895802E+00 2.641134858096E+01
 -9.494879514025E-01 -2.066610389592E+00 1.310025608922E+00 2.359936320768E+00 -1.473510212038E+01 8.950370114952E-01 -1.778851475074E+00 3.204760298687E-02 -5.410793489911E-01 1.423018116425E+00 -5.517342962182E+00 2.052311774285E+00 -1.825096730444E+00 -3.872594960815E-01 -4.535069405888E-01 -3.660610783366E+00 -2.439684487111E+00 -5.346361002059E+00 1.249447634640E+00 1.931433836683E+01
 6.968954997166E-02 -4.301471040750E-01 8.582303266945E-01 7.614117902666E-01 3.330454508773E+00 -8.140165313702E-01 1.542780799964E+00 4.969382181268E-02 1.561622352129E-01 -8.571239960750E-01 -6.894501827015E-01 -5.466444856941E-01 1.359105768267E-01 1.630230594152E-01 1.342606351948E+00 -2.002296261980E+00 -1.233200759304E+00 -5.119275092700E+00 9.834799272071E+00 -5.282453925907E+00 3.724780806486E+01
 2.669214690742E-01 5.366028374145E-01 1.123884422525E+00 7.197433992952E+00 -3.530243258254E+01 3.447264416415E+00 -1.409334152427E+00 2.314076833405E+00 4.746715776264E+00 -5.283151720217E+00 1.985112909898E+00 6.620635955121E-01 -1.732177208134E+00 -2.998199520084E-01 -1.195790710226E+00 -6.721674780120E-03 5.563501547589E-01 -2.268173232117E-01 -6.610320737215E+00 -2.703657364461E+00 8.452621838733E-01 2.617194257303E+01
 8.018242872457E-02 -6.605032442651E+00 3.698923383982E+00 -6.182453768574E+00 4.402274427929E+01 -2.660428483529E-01 -2.224894466450E-01 -2.855697885737E+00 1.604046009648E+00 3.906012719085E-01 -1.752585884272E+00 1.251636015937E+00 1.189998168825E+00 -1.163433658181E+00 1.973857246735E+00 -2.004373635029E-01 7.045254197895E-02 -1.097707557082E+00 -4.083980075221E+00 -3.437619256914E+00 2.190584866254E+00 -1.294737977719E+00 2.346534261145E+01
 -7.616120228543E-01 1.889777974336E+00 -3.063468531666E+00 -5.567889675722E+00 2.066349029632E+01 -1.234134514960E-01 1.315822937251E+00 8.214070430920E-01 -5.439445479290E+00 2.696463099747E-01 -8.122981157396E-01 3.986396876763E-01 2.591820003187E+00 1.099104851584E+00 2.050073390579E+00 -2.683693521689E-02 -3.794231155558E-01 1.014094830522E-01 2.108063815789E+00 2.014020680809E+00 -2.403824705483E+00 7.696669806817E+00 -4.681890494360E+00 3.107781424254E+01
 1.680785437602E+01 -2.601898693963E+01 1.322710593385E+01 1.752638118070E+02 -9.431769838123E+02 4.289034282724E+01 -2.020006684251E+01 6.126458263826E+01 2.706354470138E+00 3.175203370862E+00 1.654604309692E+01 -6.602915440528E-01 -5.510172756942E+01 -2.383816249260E+01 -4.725548731737E+01 1.757336598874E+00 1.662805067668E+00 -1.362475287978E+01 8.803076743928E+00 1.356309910498E+01 -3.920112634961E+00 2.327344654143E+01 -3.704169025485E+01 -3.009751328911E+01 8.972886200164E+02
 -9.368686915494E+00 -2.582550652045E+01 -6.625798648144E+00 1.660150596838E+01 -9.766203775173E+01 1.008352617338E+01 9.850213285581E-01 3.247227571346E+00 1.373383396776E-01 1.759891066183E+00 -2.181446984439E+00 -3.812813756362E+00 -3.204035566099E+00 -2.646549627162E+00 -1.614366100005E+00 -1.104576568886E+00 2.010520381001E+00 -2.663136152192E+00 1.728462639168E+00 4.767990776304E+00 -1.546908135317E+00 4.657702211319E+00 -4.892732685622E+00 2.421231003460E+00 8.712463768243E+01 7.134641128061E+01
 1.386851228141E+01 -1.727236617407E+01 1.025854569360E+01 1.352338136258E+02 -7.334624926493E+02 2.483172909671E+01 1.711887203236E+01 4.436041444699E+01 -7.236666006553E+00 1.296552169209E+01 9.189692284559E+00 -1.676251705861E+01 -3.842495019381E+01 -1.858360909017E+01 -3.813107308701E+01 3.548775800858E+00 1.957161461601E+00 -1.083157614635E+01 8.731002037190E+00 8.464406503242E+00 -5.742710478750E-01 9.730892764983E+00 -3.171685869924E+01 -3.012363137831E+01 6.511815225852E+02 6.759564658066E+01 5.621299470110E+02
 -1.855602724971E-01 2.003010662384E+00 -1.631142859581E-01 -7.730679477533E+00 4.581501592477E+01 -3.113919631627E+00 -4.499949162492E-01 -2.329528897777E+00 4.124210467416E-02 -2.230204642305E+00 -1.297493821583E+00 2.012887347545E+00 -6.515462966194E+00 6.718205772778E+00 5.273435297500E+00 -8.801652744735E-01 -1.636917014808E+00 4.394737259095E+00 -3.511249536285E-01 8.005089813893E-01 8.106453123369E-01 -1.900078565819E+00 3.071281240041E-01 1.502471503160E+00 -4.262367449747E+01 -5.485138341487E+00 -3.654357175461E+01 3.249449352206E+01
 -1.302391727966E-01 -4.469903746056E-01 -1.578567332713E-01 -3.281516319663E+00 1.504365409129E+01 -3.653195873422E+00 -2.383920291089E+00 -5.839041022573E-01 -4.725706845294E-01 -7.393772500275E-01 -7.566913411876E-01 -1.085733566979E+00 5.073437175195E+00 -1.537834756363E+00 -2.435399411864E+00 -2.021725259373E+00 -9.256844740099E-01 5.295602490816E+00 1.756267421062E-01 -8.660727378042E-01 -1.124824509617E-01 -8.385042348982E-01 1.671730686072E+00 3.946430756893E-01 -1.063621465956E+01 -3.191631906320E+00 -9.863124536699E+00 4.138917563636E+00 3.179518423951E+01
 -5.100939243112E-01 1.615663691888E+00 -5.387214881066E-01 -1.426701305183E+00 1.346594515404E+01 1.108660567845E-01 -5.490215656596E-01 -1.641401803701E+00 -9.376911901869E-02 1.717410417832E-01 -1.170465039108E+00 1.319969075422E+00 3.376861581482E+00 -1.027787420481E+00 1.209152341482E+00 2.375580443960E+00 2.449981406251E+00 -5.215892658195E+00 -3.798262861652E-01 -1.565149242172E+00 1.261238846617E+00 -7.700623748560E-01 9.058260650280E-02 -1.191418587095E+00 -8.895178305897E+00 1.162985975805E+00 -6.173802714091E+00 -5.579920176864E+00 8.946845605972E-01 2.301073252168E+01
 2.301390377193E+00 -1.478382159580E+00 2.341419845188E-02 -3.673426268862E+00 1.074962134312E+01 -5.838629648718E-01 -4.040078556689E+00 -3.001463627642E+00 1.693537548038E+00 -3.615191868832E-02 -2.466229899706E+00 -1.280884746616E+00 4.876506694561E-01 2.448040173403E+00 1.867497841376E-02 -1.868324601609E+00 -1.156996119581E+00 -2.069811152524E-01 -1.767727269941E+00 1.059686850421E+00 3.362273612595E+00 -1.415552503552E+00 -1.523676754576E+00 -1.428992495234E+00 -1.244639076179E+01 3.949572798523E+00 -8.166996796195E+00 -6.580089087564E+00 -1.929240673110E+00 -4.915576095862E+00 2.811999257891E+01
 1.457489206605E+00 8.500005578914E-02 1.333307684554E+00 2.682304407938E+00 -1.258339199139E+01 -1.186778268225E+00 -2.315044781016E-01 -2.631740984650E+00 1.521853949518E-01 -4.501609539682E-01 2.573860179601E+00 -9.572132127330E-01 4.107997151360E-01 1.231448707438E+00 -2.617177236260E+00 -1.469470137847E+00 -9.333172280506E-01 5.533128056373E-01 7.925123052021E-01 -2.159765980284E+00 -8.025887603472E-01 -5.536695551024E-01 -7.404946510975E+00 -4.384040459015E+00 1.496608454685E+01 -1.223205080013E+01 1.483012900676E+01 -3.585988521025E+00 -1.379678438103E+00 2.666531984406E-01 -1.162487798212E+00 3.134820654105E+01
 8.512598234057E-01 9.836460860132E-01 -7.877000307616E-01 1.751449765834E+00 -1.543127864850E+01 -1.032340142303E+00 -5.033067171489E-01 1.868899172679E+00 -1.487223106865E+00 1.199203721413E+00 -1.632394793593E+00 1.337737674279E+00 -1.485219074015E+00 5.958620618662E-01 -1.269321154445E+00 3.604997245287E-01 4.968681560218E-01 -1.495358663708E+00 3.023862130886E+00 -4.461759278644E-01 -5.641750635420E+00 -1.046677766618E+00 -6.026132575943E+00 -2.842654582831E+00 1.335284247008E+01 1.470804922121E+00 1.153019547691E+01 -4.548159627002E+00 -3.644186078342E-01 -3.604413664767E+00 2.067596791170E+00 1.731239542053E+00 2.449108391859E+01
 -1.071012716525E+00 -1.934186895930E-01 -7.852417206618E-01 1.015892933174E+00 2.858145767581E+00 -1.433620721891E+00 -3.725360270372E-01 -3.061853116295E-01 1.079087663076E+00 -3.060305304286E+00 -1.259155470393E+00 2.071412105513E+00 -5.368930136216E-01 4.002542541991E-01 2.024509911409E-02 -1.607589267766E+00 6.718842175666E-01 -8.400687813067E-01 -7.394639430195E+00 1.543906314284E+00 2.650926374247E-01 -1.371533811810E+00 -1.320829473686E-01 -1.037351501469E+00 -1.468541590016E+00 -8.454610500129E-01 -1.060413023886E+00 -3.040209488968E-01 7.568707118949E-01 9.584648393358E-01 -4.728274355978E-01 9.969081351477E-01 7.196962051319E-01 3.042940737982E+01
 -7.869674308789E-01 7.318123743471E-01 2.405933079167E-01 4.493341100212E-01 -1.362363661186E+00 -4.825971724474E-01 -1.235917090328E+00 6.570362131100E-02 -4.756127136586E-01 -1.286728070780E+00 -2.732390110972E+00 2.402231403728E-01 5.799647507060E-01 -1.853945064149E+00 -1.866730365070E+00 2.703294961397E+00 -2.895807081894E+00 -2.972243841095E+00 1.814539813831E+00 -3.532701216520E-01 3.422506148380E-01 -2.141983422381E-01 -3.322465061427E-02 6.345196953601E-01 2.466977981818E+00 -4.856524073279E-01 1.897052921959E+00 -9.176620144443E-01 5.606203674835E-01 -1.844645610581E+00 8.514988809763E-01 -4.883325688281E-01 -6.180067976858E-01 -1.178895092450E+00 1.759744357615E+01
 2.371783162795E+00 1.500159942026E+00 5.616727073332E-01 -2.580434205542E+00 1.823369759133E+01 -6.487238581908E-01 1.151932782538E+00 -1.312002759710E+00 2.246020693739E-01 5.682948115206E-01 -3.296104367228E-02 -1.229314713585E+00 7.097419628610E-01 2.326831378784E+00 -5.589807833310E-01 8.548742447043E-01 -7.182768477622E-01 -3.939277409258E-01 -3.562329896187E+00 1.569851559071E-01 -1.579281861482E+00 -1.060762330463E+00 1.545244801890E+00 1.482046435723E-01 -2.032722886374E+01 -1.524684800039E+00 -1.255998254431E+01 3.274299124894E+00 -1.457954077654E+00 -9.440231484928E-01 -7.607380648301E-01 -1.574806686423E+00 -5.168516393004E-01 -1.370057261918E+01 -4.990842365146E+00 2.585394822764E+01
 1.111508388648E+00 8.800463983042E-01 1.828591143479E+00 3.685828310661E+00 -2.832129358595E+01 3.019276672254E+00 -7.618343957415E-01 3.961081479109E-01 4.868257818377E-01 6.418253234765E-01 -2.770693699925E+00 -2.231394058352E+00 -1.136867337122E+01 -1.030224600572E+00 -7.274358446837E+00 3.415633926430E-01 -4.103460587356E+00 1.748924279501E+00 -3.942369541639E+00 2.648140221054E+00 -1.133536993246E+01 3.025414918351E+00 -3.599290096899E-01 8.477152991015E-01 1.525084612216E+01 -6.700655583442E+00 2.360254932648E+01 -9.458963721899E-01 1.645545866219E+00 1.191697425001E+00 -1.111038335531E+01 5.124255562016E+00 1.411504000835E+00 -1.525751057701E+01 -1.337067213943E+00 1.502510624428E+01 5.300280675260E+01
 8.669929630507E-01 -1.043821984939E+00 1.613705112357E+00 1.396673624846E+01 -8.445269087433E+01 6.991807160724E-01 -1.468380744183E+00 5.806136747852E+00 -3.044800777708E-01 -1.929648915887E+00 -9.234964936215E+00 -1.007057874847E+01 -5.235823711754E+00 -2.581502338859E+00 -7.060626533162E+00 -2.324641498857E+00 -2.495707881987E+01 5.788880819448E+00 3.027329947653E+00 -2.250029019746E+00 4.465373366254E+00 1.892870933685E+00 -5.579008556146E+00 -8.802857298606E-01 6.817097767749E+01 -2.219932453468E+00 6.240419868383E+01 -5.622793625225E+00 -5.352160682333E+00 -6.498906848572E+00 3.695328910939E+00 2.562583536069E-01 7.812237136580E-01 -1.777251941053E+00 7.912267066656E-02 -2.616942527933E+00 8.234193763545E+00 7.287771299824E+01
 -1.013956788101E+00 1.441861822545E-01 3.596167586537E-01 -6.049513050401E+00 1.847373342765E+01 1.107858375638E+00 -1.813288483827E+00 -3.598117273871E+00 -4.961453241617E-01 -2.282463715943E+00 -3.695730263375E+00 -1.999094562492E+00 -5.334624777464E+00 1.789013393188E-01 -3.277374965472E+00 -5.436832451061E-01 -3.134253989931E+00 -2.004711074128E+00 -8.480401903631E+00 7.850832875515E+00 -2.078872504798E+01 1.496351335559E+00 1.296729088728E+00 2.602513819387E-01 -1.724683013210E+01 3.449543297633E+00 -1.869784067006E+01 -1.781600246055E-01 -6.023072777667E+00 -6.057889862508E+00 4.722167818577E+00 -2.132887787860E+00 1.570650092471E+00 1.458026276018E+01 1.286434619082E-01 -1.301653409124E+01 -2.969650436112E+00 -1.444725324578E+01 7.551310521051E+01
 -8.732090583461E+00 1.437956334093E+00 -3.651295952482E+00 -7.370812617067E+00 2.319154215327E+01 6.549955586547E+00 -2.271458619891E-01 -7.111171850973E-01 1.388392482435E+00 -1.007087105242E+00 1.796033187423E+00 -3.164014338653E+00 1.865139551369E+00 -3.471849055077E-01 3.075546395080E+00 -1.195041902932E+00 -3.866402297277E-01 -1.817244490439E+00 2.148547423653E+00 6.074536963181E-01 -1.813677742046E-01 -9.955774781452E-01 2.282640772023E+00 1.108419506514E+00 -2.295790859102E+01 3.941636403861E+00 -1.337110676265E+01 -2.913941044519E+00 -5.586037187378E-01 9.547647632795E-01 -1.296370775645E-01 -6.711609600867E-01 7.426326592451E-01 1.149972508567E+00 -7.200738656521E-01 -1.345478795883E+00 -1.243731291614E+00 -4.063723930544E+00 2.354098819704E+00 3.548079913675E+01
 -2.028437719012E-01 3.485856416042E-01 -3.707559855819E-02 -1.009838304439E+00 2.373821373401E+01 -6.003152997790E+00 -2.080111346125E-01 -1.448185496832E+00 -1.690066063919E-01 -2.605256315458E-01 -7.618088632777E+00 4.420942659332E+00 2.166063905380E+00 2.333372503019E+00 1.307845511144E+00 1.745733516365E+00 -2.318162721132E-01 3.592252200014E-01 3.764426338331E-01 -5.387263290418E-01 1.576824146904E-01 -1.824583114731E+00 2.606306258351E+00 -6.679990546787E-01 -1.557150734420E+01 -1.349325165051E+01 -1.625612082703E+01 3.866082414325E+00 1.511230296020E+00 2.404796571408E-01 -1.521341572757E+00 -2.557986246081E+00 -1.984072457162E-01 -1.157263821295E-01 -3.472672159581E-01 1.134942816585E+00 -1.406145314658E+00 3.988903773193E-01 3.600675810334E-02 -1.020900814344E+00 3.306923095078E+01
 -4.680071626118E+00 2.424028220547E-01 -4.513044750183E+00 -7.730058326735E+00 6.737192252078E+01 -1.135951421637E+01 -2.317662584667E-01 -3.636337366184E+00 1.362400785095E+00 1.323361239633E+00 4.116684468066E+00 -7.625165561092E+00 4.313844251982E+00 -1.280791770452E+00 4.180736394702E+00 -2.536932358002E+00 -3.031003297254E+00 9.909505355552E-03 -7.487219752572E-02 1.081019776719E+00 -7.226763545290E-01 -4.235850611707E+00 2.970904199044E+00 3.428898211307E-01 -6.184894046700E+01 -5.128853647516E+00 -4.555559944609E+01 2.357355186265E+00 2.523093293805E+00 -5.546183061028E-01 -2.529304155498E-01 -6.943720244383E-01 -1.412823026373E+00 8.593359444498E-01 9.879631400453E-01 6.021926945582E-01 -3.625382680986E+00 -3.150101948547E+00 -7.904933337345E-01 1.701092292221E-01 1.481359362933E+00 3.047031704662E+01
 -3.078066593500E+00 8.009950169828E-01 -3.441584493182E+00 -2.618521707733E+01 1.363736674022E+02 -3.223810037686E+00 -6.913106078070E+00 -1.187150065887E+01 -3.388119515699E+00 -9.483587077031E-01 -6.967871395727E-01 -7.470096894449E-01 7.714493329343E+00 1.972388251042E+00 1.015705480581E+01 -4.006788665472E-01 4.811538140403E-01 3.347017240151E-01 -3.260185670502E-01 -1.347219974415E+00 4.184982552119E-01 -5.762277588522E+00 4.542359375264E+00 1.833811414108E+00 -1.168516166344E+02 -8.437120071168E+00 -8.674416809098E+01 -3.439643747465E+00 -5.808628843173E+00 2.882648671498E+00 1.238765726350E+00 -2.279798979126E-01 -1.423510289593E+00 1.437200938410E-01 5.256093567701E-01 1.592970765013E-01 -2.286352235064E+00 -9.360164522017E+00 1.560041032341E+00 3.915585280478E+00 1.402953607169E+00 9.176574834317E+00 4.694755133985E+01
 2.617961442935E+01 -1.502077550172E+01 1.830123847774E+01 1.917504344555E+02 -1.023848768823E+03 4.921024982944E+01 7.348771617612E+00 6.012495063567E+01 -5.461303519274E+00 1.158368397557E+01 1.464876762305E+01 -6.125464456877E+00 -5.692201396295E+01 -2.303821192181E+01 -4.760335881312E+01 4.073082344542E+00 4.033092919574E+00 -1.436624670865E+01 8.940955220565E+00 1.284179993442E+01 -2.217671228602E+00 3.296643932875E+01 -4.211676586007E+01 -1.996872404297E+01 8.833787857121E+02 8.476208286083E+01 6.851360234068E+02 -5.173551446783E+01 -1.888849667903E+01 -9.460437304952E+00 -1.034830502941E+01 1.119996576076E+01 1.811288699853E+01 -2.211619294129E+00 1.073810637170E+00 -1.740283227876E+01 2.560134838261E+01 7.735500583855E+01 -1.674773036917E+01 -1.816456504212E+01 -2.356720773502E+01 -6.592451668296E+01 -1.234547722123E+02 9.754276909832E+02
 -1.178600250992E+00 -2.650516687265E-01 -5.082428651933E-01 -1.776669218028E+01 9.047048288686E+01 -3.469393402413E+00 -3.743826545962E+00 -8.089299180584E+00 -2.383447355941E+00 -8.947445755060E-01 -7.599586527043E-01 -1.115148411604E+00 5.950070669958E+00 1.512608570791E+00 5.285359189075E+00 -7.445696410738E-01 1.941817492261E+00 2.250132664736E+00 7.542779784055E-01 -2.639104643297E+00 -5.980139589755E-01 -3.585666407123E+00 5.056591856718E+00 1.520925769817E+00 -7.631350802542E+01 -1.447838544584E+01 -6.960343607999E+01 6.820250963069E+00 3.952290840740E+00 -2.630911236066E-01 5.533128812635E-01 2.130780352158E+00 -7.904307327632E+00 5.932390904376E-02 -7.885152001197E-01 6.954357956981E-01 -4.658349860505E+00 -7.343741416936E+00 2.905696991483E+00 -1.109334532610E-01 2.592844385495E+00 5.124366537408E+00 1.395421146520E+01 -8.086974870899E+01 3.021208389447E+01
 -2.292876098052E-01 1.499663892488E+00 -1.072231635906E+00 -1.189146004971E+01 5.149273734938E+01 -4.441726017395E+00 4.498565894165E-02 -2.578559829771E+00 -2.123350166887E-02 -7.300308656901E-01 -2.024608284948E+00 9.858974475632E-01 3.390060359317E+00 7.591113213239E-01 2.825854814677E+00 9.820164543723E-01 -7.983182843850E-01 1.346450317835E+00 -1.588087506435E+00 -1.475313271492E+00 1.119439687811E+00 -2.910193317329E+00 2.507772980160E+00 -1.182519303989E-01 -4.711693959225E+01 -4.445980465847E+00 -3.510655075687E+01 4.166536332792E+00 1.511659299722E+00 5.494371520728E-01 1.258123093188E-01 -7.659108289512E-01 -3.478827924232E-01 -9.752869763922E-01 -7.356811344358E-01 1.139859546766E+00 -1.179077146245E+00 -3.180261867274E+00 1.055050701326E+00 -2.639913836490E+00 1.538484198480E+00 -1.163561806720E+00 6.376525744837E+00 -4.996716874505E+01 4.650747593266E+00 2.372950926405E+01
 -1.575294111718E+00 -7.301700208613E-01 -9.952063583342E-01 -1.639975883714E+00 1.743533360204E+00 -1.296911911563E+00 -1.744173667929E+00 2.205178331629E-01 -4.593448611464E-01 -4.485246195088E-01 -8.258432510526E-01 3.112710258183E-01 9.681660642513E-01 8.699269737738E-01 -1.705916114774E+00 8.886249730796E-01 2.439711520345E-01 1.403064424751E+00 7.753155506189E-01 -6.502317401883E-02 -5.281396649499E-01 -7.773826913302E-01 -7.563767086297E-01 7.489768815451E-01 3.215256821515E-02 6.016345858160E-01 -1.149418052696E+00 -3.939934124756E-01 -5.895987186825E-01 -7.282260651538E-01 -6.039118838511E-01 -3.531396492142E-01 2.661986571324E-01 5.216001926114E-01 1.742018826635E-01 -9.721573726251E-01 7.707843722035E-01 5.429548248904E-01 7.681805342230E-01 -2.142983737128E+00 -1.378244217840E+00 -2.937269780113E-01 2.526054299538E-01 -2.229551102521E+00 1.445147387385E-02 -1.234447919556E+01 2.131971392996E+01
 -6.117423339970E-01 9.190216428366E-01 -2.277788560508E-01 -1.985646638871E+00 1.215406740264E+01 -1.400946058613E+00 -1.838983460044E+00 -1.222600037045E+00 4.561534628451E-01 -3.147245706893E-01 1.976787432509E-03 1.629178904980E+00 -2.855774246925E-01 1.522952391687E+00 9.443794409606E-01 5.434795763059E-01 -4.483604494436E-02 5.802953621245E-01 -2.186854934606E+00 -1.433877895312E+00 1.476712234353E+00 8.794316067977E-01 2.725579713161E+00 -4.394918472027E-01 -1.187215282420E+01 -1.605552960643E+00 -1.107873311977E+01 3.449495189458E+00 6.822351850495E-01 3.247283443523E-01 1.750781330526E+00 -2.423700268626E+00 -9.952132851629E-01 -3.525488020879E-01 -4.145175709359E-01 6.065654428985E-01 -1.047790114184E+00 -2.892372302153E+00 1.902312850461E-01 -1.282067735798E+00 1.040999325485E+00 -5.868424136439E+00 4.748845648282E-01 -1.335679164583E+01 1.696970974295E+00 1.136373449962E+01 -8.120987724242E+00 2.131173191115E+01
 -3.008791492702E-01 -9.460943630206E-01 -2.610797619399E-01 6.446058547827E+00 -4.108535012488E+01 1.979059446539E+00 -5.695640013757E-01 2.337560028625E+00 -1.560338725171E-01 -5.452818161248E-01 1.946996200889E-01 1.386634720881E+00 -2.279770467748E+00 1.152882541132E+00 -3.385425052044E+00 8.299083901834E-01 -7.819890090322E-01 4.738002355019E-01 -1.282539866956E+00 7.718185474189E-01 -2.791323964078E+00 1.603248904237E+00 -1.294174835671E+00 -1.524650205194E+00 3.644141863229E+01 4.170277838425E+00 2.542715009587E+01 -2.993500257902E+00 -1.226130711080E+00 1.837203859437E+00 -4.420791183627E-01 -7.637528515731E-01 -3.857728048725E-01 -1.841483348544E-01 -3.747782435386E-01 1.479502618300E+00 2.171553301783E+00 1.826948985900E+00 2.423090431960E+00 2.384512663759E-02 -8.088694642535E-01 -2.551609992177E+00 -1.308779354626E+01 3.933605313757E+01 -7.208264219327E+00 -5.574645420791E+00 1.983968272534E+00 1.836581462885E+00 1.412909933788E+01
 1.113850714477E-01 -7.291667608585E-01 -6.714587060293E-01 -3.196528803701E+00 7.569574730851E+00 -9.540349762627E-01 -4.661412131208E-01 -7.821188538461E-01 -9.456670793198E-02 -3.122145695187E-01 -9.138707027191E-01 -1.212556830130E+00 2.171347459762E+00 -1.024746137136E+00 9.416902692450E-01 -1.224450475892E-01 -3.713569361373E-01 1.195680035347E-01 3.977251294608E-02 1.622008754523E-01 -1.331176239496E-01 -8.128218707868E-02 -6.248057308885E-01 3.117475718200E-01 -7.338720746649E+00 1.449794883154E+00 -4.376440513419E+00 -9.485480406226E-01 -2.670756904766E+00 3.580454121778E+00 1.275893033943E-01 5.001939022700E-01 6.676488629020E-01 -3.171969162424E-01 -3.791367130803E-01 -7.742175404328E-02 1.042316529877E-01 -3.825192501994E-01 2.657537510832E+00 4.975724403630E-02 -8.945399920468E-01 -3.231481794772E-02 2.655665958869E+00 -8.498489058905E+00 8.759418642631E-01 1.708113881572E+00 -3.451497452824E+00 -1.979803013371E+00 -1.654589591113E+00 1.078579002683E+01
 -8.550830534490E-01 -6.055322583437E-01 -1.162819242832E+00 -2.691707038620E+00 1.907973507609E+01 -4.341236793408E+00 -1.207666608108E+00 -1.667628949930E-01 -7.838578308129E-02 -1.733427760027E+00 -1.402282041283E+00 -2.089418633032E-01 5.255148883150E-01 -6.639999042940E-01 8.998011732279E-01 -5.481581714258E-01 6.697547311985E-01 7.595144567872E-01 -2.043899109549E-01 -6.130492746072E-01 -4.589098796464E+00 1.033074157717E+00 1.633396106362E-02 2.017309479903E+00 -1.654259771223E+01 -1.812967588158E+00 -1.353361770153E+01 2.557823174466E-01 2.347714828156E+00 -2.357625342594E+00 -2.197290751270E+00 -1.240104698907E-01 -1.443074627614E+00 4.397968730655E-02 -9.960070430452E-01 4.616839586122E-01 -8.595152661437E-02 -5.524023142304E-01 7.709917970562E-01 -1.236552081242E+00 3.395974049277E+00 2.263742792411E+00 -1.168222308165E+00 -1.806867182782E+01 3.797839343356E-02 1.056235258615E+00 -6.056344379042E-01 -1.235791968197E+00 4.253372583318E+00 4.954506237738E+00 3.831105093719E+01
 7.943958244088E-02 -9.040099690549E-01 3.830500506104E-01 1.241607493251E+00 -4.853470476682E+00 1.993639662919E+00 -1.175721003011E+00 -5.466992629417E-01 -6.481026453238E-01 -5.795458528398E+00 -4.986282374157E-01 -3.988816651930E+00 -1.949023391597E+00 -2.613116328441E+00 -1.117341875658E+00 -1.646655114410E-01 1.427074883710E-01 -3.646131307547E-01 2.349788074369E-01 -1.843045519818E-02 -1.113403391053E-01 3.651873935397E-01 5.558522823870E-01 1.268631677961E+00 7.269750169697E+00 1.690464977483E+00 1.159578086507E+00 8.959757512696E-01 -2.146341547665E+00 9.017144238733E-01 -6.806787948583E-01 6.966062727637E-01 -1.180239498647E+00 -1.234773533181E+00 -5.654590521927E-01 2.680098201114E-01 -4.554358907348E+00 7.109004254013E+00 -3.738771705969E-01 -1.252292696171E+01 -8.752861446967E+00 2.454550062451E+00 4.795869792661E-01 4.720758489205E+00 1.167494893020E+00 -5.630833760901E-01 3.176355252301E-02 -1.922534746516E+00 -1.544129839250E-02 1.533065410452E+00 -1.451477955461E+00 3.002267810517E+01
 2.104007963958E-01 1.122077508165E+00 4.814878023422E-01 -2.798842989175E+00 1.395363329530E+01 -3.068204723332E-01 -2.104564160661E-01 -1.858985345446E+00 1.068840721248E-01 1.206872997967E+00 6.557042964107E-02 1.847933594173E-01 -1.732355285312E+00 -6.726368144313E+00 -2.687379525053E+00 -5.386374385422E-01 -7.944053125343E-01 -3.774682371033E-01 3.423457413482E-01 -5.898392606582E-01 1.286690085525E+00 -3.809781794848E-01 1.700300218965E+00 4.983924720142E-01 -1.377044868638E+01 -7.141305227154E-02 -8.423958018473E+00 3.607256550389E+00 6.467124468727E-01 7.402561162119E-01 6.448314692282E-01 -1.223918146980E+00 -1.239862398471E+00 1.246102409716E+00 -6.551570516135E+00 3.136572889497E+00 2.868966987585E+00 -8.688159316217E+00 1.253835034384E+00 -6.039109707115E+00 -4.077444371689E+00 2.934158765529E+00 2.260940988351E-01 -1.376062558076E+01 1.535920368678E+00 -7.436941335320E-01 1.281473716001E-01 6.059231667730E-01 6.030301726522E-02 7.276361968563E-03 4.074360199368E-01 1.762409298295E+00 2.795166755055E+01
 -1.138650218597E+00 -2.469418591972E-01 -4.772030418599E-01 -7.960875935316E-01 4.611314486410E+00 -4.607188285228E-01 -6.838539552302E-01 2.439580964863E-01 -6.769844562689E-01 -4.603131796191E+00 -1.654279840203E+00 -2.142082320878E+00 1.099302841757E-01 -6.065466446904E+00 -4.661437121900E+00 8.372352574033E-01 -1.010688776261E+00 1.909225257918E+00 1.033878413707E+00 3.916154596815E-01 -1.148391559374E+00 -2.704140575578E+00 3.304569426106E-01 3.108294119321E-01 -6.500916734359E-01 2.173214894962E-01 -2.325645790764E+00 8.739162917141E-01 1.321945955119E+00 -1.864750570811E+00 -2.358678059889E-01 8.021555990942E-01 -3.190374932086E-01 -9.741547038313E-01 6.792819589409E+00 -4.223591727137E+00 -1.708229347982E+00 2.105798540641E+00 -4.140261233482E-01 5.018669672852E+00 2.292953096913E+00 6.081495219665E-01 1.017069889348E+00 -6.278823981471E+00 3.749762311207E-01 1.184873494583E+00 2.647815852945E+00 -7.011182748808E+00 -1.529532833286E+00 -8.281412224759E-01 7.753233359550E-01 -2.827228964069E+00 -2.160801310848E+00 2.580272989476E+01