#BIOSYM hessian 1
@Type: Hessian Update
@Units
 distance: 	A
 energy: 	Kcal/Mol
#header
@natom 19

#label
L1      L2      L3      L4      L5      L6      L7      L8      L9      L10     L11     L12     L13     L14     L15     L16     L17     L18     L19

#element
Li Li Li Li Li Li Li Li Li Li Li Li Li Li Li Li Li Li Li

#matrix
57
 2.500088543125E+01
 1.050214994822E+01 1.697208696622E+01
 1.849072024563E-01 -3.341983047939E+00 2.556169004842E+01
 -3.230339661255E+00 -2.355294411817E+00 4.602420376525E-01 2.022943679996E+01
 -7.650104579906E-01 -9.277289348351E+00 1.493701564100E+00 1.323111836373E+00 2.958493987726E+01
 2.013403461342E+00 3.195037713126E+00 -1.490311854852E-03 5.862845767654E+00 5.235128633488E-01 1.847032738897E+01
 2.168904746274E+00 -2.070263555028E+00 -1.172534900723E+00 1.074835666935E+00 -6.785926792378E-01 -9.745181951813E-01 2.298953784677E+01
 -8.922831700995E-02 1.486755908554E+00 1.187773647004E+00 5.810230656113E-01 -1.013458417538E-01 -2.049605365425E-01 1.126951588269E+01 2.097387065955E+01
 -2.164178937087E+00 5.541161937152E-01 1.694505561051E+00 -3.688512499878E-01 1.302715404206E+00 -2.608664132874E-01 7.996193471088E+00 1.215340148323E+01 2.110723019245E+01
 5.494444069592E-01 -6.711812628040E-01 6.293981953770E-01 1.320144916401E+00 4.558764871422E-01 -6.298666344080E-01 -8.458340733248E-01 -1.085884368960E+00 1.266229296234E+00 1.225647976444E+01
 7.233333511632E-01 -1.465720948583E+00 -2.097063025847E-01 2.628537875070E-01 3.012648097149E+00 -9.548925818755E-01 -1.641189875994E-01 -1.592099954166E+00 5.361823956160E-01 8.423148270245E+00 3.441754516476E+01
 -4.500802158961E-01 -8.493114811169E-01 3.131322158006E-01 4.187411136737E-01 1.821588300732E+00 -1.208002067949E+00 1.442768154963E+00 -9.072717999203E-03 9.740111356279E-01 5.304967081932E+00 7.888376190957E+00 5.815097469828E+00
 -4.060323851539E+00 -9.337755392471E-01 3.188612582088E+00 -1.744287643201E-01 -2.405284934425E+00 -4.031597130085E-01 -1.947940547300E+00 -5.779552530862E-01 2.420126721717E+00 5.437804636702E-01 5.979821794283E-02 -2.247181891871E-01 1.289763451548E+01
 -1.931363416513E+00 -2.552367909938E+00 4.739373509009E+00 -1.110006680925E-01 -6.450597190576E+00 -8.589275910315E+00 1.935142940468E+00 1.136106970917E+00 -8.404232636753E-02 -5.510012615856E-01 1.988314406598E-01 2.503689452784E-01 5.166120004220E+00 1.109231707857E+01
 3.519568508494E+00 3.120813126380E+00 -1.714101662045E+01 -1.772698312837E+00 -5.172275798955E+00 -6.555007081747E+00 5.748893998262E-01 4.902807617129E-01 -1.578943619629E-01 -1.624536406041E-01 -1.205051576530E+00 -7.402692779697E-01 -6.093253170449E+00 -4.721596062078E-01 4.168342316684E+01
 -1.372858039160E+00 7.158262874366E-01 -1.439700912461E+00 -1.218042458267E+00 3.627789763064E-02 -6.518512175145E-01 -1.892599736607E-01 1.917013855297E+00 1.564138798189E-01 -1.364374258140E+00 -1.646391815179E+00 1.166120754270E+00 8.239159195687E-01 -7.484583255134E-01 -3.200282136056E-01 2.176350892396E+01
 -7.795945929463E-01 -1.198552229769E+00 8.969696552262E-01 7.657188595784E-01 -1.100046013867E+00 -8.693855399325E-01 1.186797330664E+00 6.818968355376E-01 -9.644487855249E-02 -1.088013890783E-01 -1.685928919861E+00 -1.704561515963E+00 5.416162336015E-01 2.511267299100E+00 6.549897636380E-01 -1.063253049073E+00 1.698289729522E+01
 -1.430313408834E+00 -1.023499072800E-01 1.270748404440E+00 -1.805877142677E+00 -1.103741498068E+00 9.801531116929E-01 -9.264357366438E-01 -2.171527205678E+00 4.874358751715E-01 1.401894638141E+00 -1.297223426566E+00 1.246420650911E-01 3.224307779635E-01 -9.137416053692E-01 1.006566758866E-01 4.002757810695E+00 1.086032552091E+01 2.479918467330E+01
 2.060778125394E+00 -1.496879368561E+00 -6.352631510066E-01 1.854397069142E+00 1.171868190857E+00 -5.116842590178E-01 -1.199167798149E+00 -2.017569057659E+00 1.473402742230E+00 -4.047610257429E-01 1.273370494086E+00 2.035502151445E+00 1.287348962104E+00 4.310610378083E-01 -4.344008048050E-01 -1.842211635395E-01 1.399096074847E+00 -2.541423574483E+00 2.259086466587E+01
 -3.262098742645E+00 -1.052152892199E+00 1.226030009051E+00 5.274402616907E-01 2.153846381501E+00 -7.848259711825E-01 -4.630625490169E+00 -5.639330721354E+00 -1.370945411703E-01 8.493075130257E-01 7.578384653032E-01 8.567946766290E-01 -1.302685178444E-01 -1.130461921283E+00 -2.270493542946E-01 1.345593990869E+00 -8.125942754195E-01 -3.146337496140E-01 -3.343623218969E+00 2.255320115267E+01
 2.670644021864E+00 -2.833611541050E-01 -3.256114086349E+00 2.901606120525E+00 -2.944475597120E-01 9.868618255519E-01 1.447725208014E+00 4.900146500988E+00 -3.426316224873E+00 -7.504934871280E-01 1.081571129386E+00 2.856503809164E+00 -3.473119068386E+00 9.888129103443E-01 2.826468358881E-01 1.146247556965E+00 1.136012412821E+00 -1.958142939426E+00 5.404857937837E+00 3.717762264914E+00 2.656920247110E+01
 -1.219122980890E+00 2.447444347104E+00 1.190701926934E+00 -2.032025037122E+00 -3.398476014889E+00 7.745725170442E-01 8.681012381022E-01 5.509289049110E-01 -7.007966793092E-01 1.141632748985E+00 -1.758507186621E+00 -2.014833251074E+00 7.700675601481E-01 1.177633267911E-01 -5.164892169292E-01 -5.762311857650E-01 2.137160815858E+00 6.596806361224E-01 -7.221124767055E+00 -4.185023537586E+00 -5.518338749524E+00 1.607299155506E+01
 1.571459080620E+00 1.210929622255E+00 -4.714857770853E-01 -2.395820996646E-01 -4.535509451189E-01 1.799418507884E+00 -1.842620086461E+00 -2.334230127776E-01 4.428389916387E-01 8.872560226528E-01 2.548551737418E+00 -1.140757393626E+00 7.884118426634E-01 -2.657047294497E+00 -3.867489764422E-01 -1.441724285455E+00 -1.540193124513E+01 -7.311200096349E+00 -2.159926146988E+00 -6.804435179362E-02 5.574478150218E-01 4.942298350077E+00 3.824167461633E+01
 5.084437128192E-01 -2.757854685427E-01 -4.488857344021E-01 -9.276648399560E-01 3.111156968419E+00 3.404642851749E-01 -5.503846836002E-01 1.052306611890E+00 5.022217230027E-01 3.190817336518E-01 1.582562577057E+00 1.189317480054E+00 -5.573577824864E-01 -2.185641558215E+00 -1.033602461266E+00 6.434206189836E-01 -1.023871931428E+01 -5.659683551372E+00 -7.166486243806E+00 -1.032678296179E+00 -7.126983872887E+00 3.125155730955E+00 -1.432375109505E+00 2.238398780278E+01
 -2.929483219190E-01 7.201750017495E-01 1.110728804817E+00 -8.598051232191E-01 1.011470969927E+00 -9.892353378745E-01 1.840488739638E+00 3.292688990631E-01 -1.013084586524E+00 -1.435808843291E+00 -1.558409966398E+00 -8.959010927979E-01 6.882696690407E-01 -5.698207363682E-01 1.327873066527E+00 -1.469632064024E-01 -3.072899015005E-01 6.471826888045E-01 -1.892896454984E+00 -1.801104118979E+00 -9.926603977018E-01 1.693643917435E-01 -1.085968381512E+00 -4.461564686274E-01 9.300250459677E+00
 3.237791009423E+00 6.937832248489E-01 -1.137599137463E+00 -3.890777520516E-01 -1.734658951509E+00 1.393142480773E+00 -4.364805130141E-01 5.516109388945E-01 -1.061049125442E+00 -2.150140791575E-01 5.775241018183E-01 -2.104768242514E+00 -1.917452836483E+00 -1.648602154557E-01 -1.356383621524E+00 9.935221704975E-01 2.417763873244E+00 -1.258291020501E+00 1.322703531572E+00 -1.496146402386E+00 1.091519330813E+00 1.140684221738E+00 4.358534039217E-01 -6.723984942404E-01 -3.509088417254E+00 1.003352412204E+01
 -6.480551363350E-02 1.219228161298E-01 -9.680600742529E-01 2.297455782024E+00 2.875905940515E-01 1.118085649675E+00 -1.442541489124E+00 7.686984983072E-01 -2.537469872333E+00 -2.355214927343E+00 -2.917471239786E+00 -1.470284373165E+00 2.216045355205E-01 -2.256903381797E-01 1.955897730059E+00 -1.725299872752E+00 -1.634061344192E+00 -3.347873524961E-01 -1.552625176917E+00 2.815435547719E+00 -3.494222167541E+00 -4.939749811503E-01 7.348560620055E-01 5.047562839607E-02 -1.964660120126E+00 -9.127709198200E+00 2.331385980531E+01
 3.213135840417E-01 -1.066632325256E+00 -1.374987619594E+00 2.391945985332E+00 -1.008851614487E-01 -1.682488012756E+00 -1.485508279916E+00 2.259735558630E+00 -5.263131414771E-01 -2.030175526408E+00 -2.851421195017E+00 -2.377330283776E+00 4.815316144654E-01 1.157955704689E+00 1.865944489713E+00 -8.360328182139E+00 -2.767249886295E+00 -7.655307359968E+00 -1.231447838061E-01 -2.005861203784E+00 -6.923189390484E-01 -4.557020129790E+00 3.042500463609E+00 1.002367715394E+00 -8.722084958941E-01 1.242038000301E+00 2.759282829146E+00 3.842123631393E+01
 -1.551242676035E+00 2.299278865699E+00 1.387259099847E+00 -1.126793627498E+00 -2.014895161741E+00 -9.890853851112E-01 -4.872128169202E-02 -3.338305483185E-01 4.248586644633E-01 -4.472227872343E-01 -2.736766799327E+01 -4.436701803482E+00 9.945940371047E-01 -2.298155165916E-01 2.152091152807E+00 -4.341611219798E+00 4.830589526422E-01 1.747664876545E+00 -4.338461434683E-01 -1.213564618246E+01 -1.255354850479E+01 6.154681004467E+00 -5.316891827344E+00 4.350271398718E-01 5.085303198809E+00 -8.826528800448E+00 9.002296074791E+00 -3.010358898671E+00 5.782497774026E+01
 1.886811487196E+00 1.902647123588E+00 -1.719327742513E-01 -1.743366271370E+00 -9.434422893084E-01 2.263718588497E+00 -9.989296065206E-01 -2.572566294548E+00 -1.786902527753E+00 8.622831599143E-01 -1.099955652991E+00 -1.741290887024E+00 7.857472742574E-02 -8.760519027177E-01 -2.421795507247E-01 -7.199903279081E+00 -3.822751430198E+00 -1.128947285923E+01 8.387752847560E-01 -6.770960085214E+00 -3.144592921615E+00 9.197196982982E-03 4.110145833533E+00 -2.134200498074E+00 2.102707684736E+00 8.148628182574E+00 -1.276547486933E+01 -3.016709926791E+00 -1.375258796810E+00 4.715529459118E+01
 -3.123398433573E-01 2.398751795927E-01 2.107298257379E-01 4.688288855577E-01 4.086843245866E+00 4.061689821017E-01 -1.649928649811E+01 -3.621289794858E+00 -5.259074237886E+00 1.890859541207E-01 2.886418132218E+00 2.415588247142E-01 6.124932499562E-01 -1.728231875110E+00 -9.925557453251E-01 -5.941584400026E-01 -9.574096132190E-01 2.197642970949E+00 -2.919508359317E+00 1.002138121525E+00 -2.074904295246E+00 -5.813598221943E+00 -5.534319195993E+00 7.076745716228E+00 -1.922199249900E+00 4.794180576804E-02 -6.533502618326E-02 3.753614722493E-01 -5.781944684922E-01 -8.592260047134E-01 3.977484249015E+01
 -3.305808489713E-01 -1.628535129447E+00 -1.259449886258E+00 3.027504405752E-01 -1.007210303541E-01 4.601192490597E-01 -2.227554654319E+00 -3.291155121948E+00 -3.903129918624E+00 -1.010365792003E+00 1.104080892329E-01 3.819834410360E-01 -1.134820245375E+00 1.018053389168E+00 7.697734726745E-01 2.522215211655E+00 1.364824236687E+00 1.449970245551E+00 1.116186642908E-01 9.311892316738E-02 1.671417090306E+00 -6.595509838487E+00 -1.114902498534E+01 1.795749587341E+00 9.498397585259E-01 -1.915179270187E+00 8.340897098059E-01 -3.934430233742E-02 5.267585635004E-01 -5.851904569788E-01 4.796488962972E-01 2.373038458293E+01
 -1.703255789107E+00 -1.570523239402E+00 1.461645541396E+00 -2.026316265430E+00 8.742021434611E-01 -2.511437181031E+00 -1.225694690327E+01 -5.789869726087E+00 -4.996393202046E+00 -5.686199496414E-02 6.974065979411E-01 -3.072872689645E+00 2.103733965584E+00 -3.499987333247E-01 1.114628671365E+00 -3.062611163815E-01 1.580437756852E+00 -5.657617238586E-01 -1.924118260179E+00 -1.321676399948E+00 -4.702803237255E+00 2.041938902910E+00 2.171154991895E+00 -9.004571997412E-01 -9.588289420841E-01 5.762405379166E-01 2.305811602159E+00 2.651454894272E+00 3.110417492086E+00 1.435452494195E+00 2.238796155105E+00 2.120719653144E+00 1.777806941722E+01
 -7.440012951826E+00 2.746729306860E+00 -1.165081207421E+00 -6.884083786953E-01 -1.470614702878E+00 -1.051981868006E+00 -4.260350143106E+00 -2.485014923249E+00 -2.345396360712E+00 3.435417969492E-01 -2.643382414727E-01 4.619847277844E-01 1.801976998644E+00 9.933039034470E-02 7.247487200940E-01 -1.029763651661E-01 -6.742996851228E-01 6.094141140445E-01 -1.570093840255E+00 -1.420838060334E-01 -5.093966828988E-01 7.098311138961E-03 -6.837644995348E-01 -1.673748409150E+00 -4.653547686340E-01 -1.261820661727E+00 -9.815546233570E-01 1.471494131132E+00 2.727095978500E+00 1.807077463004E+00 -7.735404261862E+00 -2.106307553875E-01 6.483316323760E+00 2.291288337745E+01
 -1.650092863842E-01 -2.222670968009E+00 8.930271997065E-01 -6.412620461405E-01 3.819833910977E-01 -4.613406137318E-01 -7.781279923996E-01 -2.245694354757E+00 -1.634445273920E+00 6.900317006954E-01 -7.693578786368E-01 -6.452052427479E-03 -1.274284061035E-01 -1.034652266995E+00 -3.381269101470E-01 -1.612731925834E+00 1.109892149362E-01 2.248462566624E+00 -1.786485246992E+00 6.034795372070E-01 -1.459312127243E+00 -3.949242804410E-01 -4.593997130368E-01 1.486881678719E+00 1.255944960427E+00 5.775637121270E-01 -2.764185695550E+00 2.530327371304E-01 4.152179778757E+00 7.607245113459E-01 -7.556235019397E-01 -1.402308138613E+00 -5.923813093762E-01 2.184325449078E+00 3.118102139924E+01
 7.339045910070E-01 1.436115085947E+00 -2.110369782820E+00 1.038834928522E+00 -7.442947729693E-01 2.725414636660E-01 3.774017586947E+00 -8.543974297100E-01 -1.202919117107E+01 -1.176044196212E+00 -2.907765740268E-02 1.768369611457E+00 -3.001529868036E+00 2.781995773248E-01 -1.858190196356E-01 2.404004033386E-01 1.178694070847E+00 -1.637356417253E+00 2.116507389030E+00 3.329726546463E-02 3.552547411002E+00 3.405469091234E-02 -6.459999446283E-01 -1.043223436188E-01 -4.798111600127E-01 2.323138664906E+00 -7.489506284619E-02 -1.224424348920E-01 -3.017621052243E+00 -1.567987005137E+00 2.506754223657E+00 7.629069220215E-01 -5.890068988297E+00 -5.100029907018E+00 -2.494880415311E+00 2.577970922201E+01
 3.688602240402E-01 6.630492832535E-02 -1.237543409985E+00 -1.071706700767E+01 -4.221555874034E+00 -4.093344690746E+00 2.291375890339E+00 -9.099607512886E-01 1.702521907546E+00 -5.870271695868E-01 3.033263019371E+00 -1.733827274802E+00 -1.032227833913E+00 -2.039261594501E+00 1.326636629934E+00 -9.713886629349E+00 -2.267975951854E+00 3.346513065866E+00 -1.607323994762E+00 1.099440794150E+00 -8.831519205891E-01 6.764532375020E-01 1.606707078841E+00 2.684493767355E+00 1.124497494549E+00 -3.450938129430E-01 -5.327860743401E-01 -2.938274316574E+00 2.638540248211E+00 6.691982501633E+00 8.654645345333E-01 -9.750303098938E-01 1.342474113787E+00 -1.225392780212E+00 2.111992974706E+00 -2.948388385717E+00 3.507482531082E+01
 1.204039118148E+00 2.817346388486E-01 -1.692840862465E+00 -4.466959336750E+00 -4.474018148769E+00 -1.046142027650E+00 5.574932159977E-01 4.843774144048E-01 4.320125702668E-01 9.083624464006E-01 -1.059198623031E+00 -3.474353370354E-01 -8.189261170736E-01 -1.063090708458E+00 -6.067952919130E-01 1.319560605284E+00 2.461731154823E-02 7.747705938845E-01 -7.077872852270E-02 2.925884198940E+00 1.889142995196E+00 1.055697799145E+00 2.614676672630E+00 -9.008747051727E-01 3.276612759469E-01 -7.315756349818E-01 1.436714017361E+00 -5.390056100003E-02 -4.742388994974E+00 -5.511764094611E+00 -2.270269655470E+00 1.285548840325E+00 8.463927992409E-01 -2.045128932874E-01 1.072009111118E-01 -1.222225577143E-02 5.571771459990E+00 1.971927521419E+01
 1.726449773250E+00 -5.956808790103E-01 4.421918319486E-01 -4.972140822668E+00 -2.767140024474E+00 -2.856874444356E+00 -1.342780932175E+00 6.419347036525E-01 1.768741638192E+00 1.070985052414E+00 -1.583919533509E+00 -3.376273559830E-01 -6.676345137402E-01 6.366464882987E-01 -2.276492046264E-01 -1.064056613457E+00 2.130331736366E+00 5.225828984607E-01 -1.010706528748E+00 -2.545243396819E+00 -2.004819218501E-01 -7.365954553883E-01 -7.219153715495E-01 1.325976400320E+00 -5.256432330916E-01 1.664078623675E+00 -3.986754767841E+00 8.842619531860E+00 1.446629220106E-01 -1.501348492327E+01 -8.758799739019E-01 -1.232433098886E+00 3.867154254874E+00 1.188304277166E+00 -4.147862030358E-01 -3.752288282479E-01 -5.248590474535E+00 7.194622635418E-01 2.581729788347E+01
 -6.460149818663E+00 -2.841590539740E+00 3.343746063966E+00 -6.426984737558E+00 5.544144187336E+00 1.188870399670E-01 -1.341421136743E-03 -2.130006656618E+00 -1.344557767401E-01 -5.713380467100E-01 -4.311000843568E+00 -3.985021175063E-02 -4.473052685781E+00 -6.202823943105E-01 -5.435407719182E+00 1.567674381347E+00 1.749865123646E+00 1.503695390202E+00 -5.655145738350E+00 3.453398185357E+00 5.079502932379E+00 5.811920581413E+00 -3.149859412414E+00 8.891677613512E-01 -4.209841284660E-01 -1.956130071860E+00 3.318643327873E-01 -3.214776234370E-01 2.542150512417E+00 -2.742706270763E+00 -7.486046382618E+00 9.804275943539E+00 -1.845722670112E+00 1.246041685958E+00 -2.518243600139E+00 -4.370660210083E-01 1.653599327001E-01 1.498980738478E+00 3.164928351365E+00 3.869667018714E+01
 -9.503044078183E-01 1.594869049893E+00 7.146006806859E-01 6.697938161937E+00 -6.831856510030E+00 4.979163321845E-01 -2.391914865811E+00 -1.339981253733E+01 -8.744970303541E+00 -1.404070851930E+00 -1.043843897659E+00 1.339583976060E+00 8.888461647700E-01 4.026057990160E-01 -1.245035686425E-01 -1.921886465726E+00 -7.203495729103E-01 -6.069915323514E-01 -6.192562429361E-01 -7.935635215270E-01 -2.822487443358E+00 1.308042272993E+00 -8.722742022558E-02 8.918095451292E-02 -1.934345532929E+00 -3.026539709918E+00 5.165251032658E-01 -1.616701648660E+00 7.609509295675E-02 2.942818256514E+00 6.018120733097E+00 -2.420328022232E+00 1.891715507873E+00 -3.522881040752E-01 -8.482286913403E+00 7.763639174584E+00 2.409363440530E+00 -1.213966179091E+00 -9.100453192460E-01 -6.616275031259E+00 3.774422073060E+01
 2.347174789005E+00 -3.145321237912E+00 2.960814673614E-01 1.188140465045E+00 -2.359963951862E+00 -1.126247126192E+00 8.640391848222E-01 -7.212528730463E+00 -1.997860614955E+00 5.417571184590E-01 9.200326676558E-01 -8.820840757621E-01 -4.760130820515E+00 1.082788674204E+00 -9.674938265741E+00 -5.534610749058E-01 7.057517082276E-01 -1.625243079205E+00 7.578184274913E+00 -1.155275461295E+00 -2.871807864902E+00 -2.917434215499E-01 -1.969125313160E+00 4.317004312476E-01 -1.847503936592E+00 2.793526103065E+00 2.501262295805E-01 2.460735506080E-01 4.176903532220E+00 -6.561314259373E-01 -3.152552874259E+00 -1.336612291544E+00 -4.284549802215E+00 -1.605288924380E+00 8.310487329160E+00 -7.070737250448E-01 -1.870027986266E+00 5.022375950871E-01 9.836761314359E-01 1.819124112508E+00 1.945194444210E+00 4.194911587793E+01
 3.718184618538E-01 -5.590703993592E-01 -7.873857512478E-01 -3.232324796000E+00 -2.220121083038E+00 5.321757966151E+00 -1.557586327604E-01 -1.482582965188E+00 -1.768434720058E-01 -9.376148760637E+00 -4.859326637076E+00 -2.046984586868E+00 -3.810734622928E-01 1.888374697558E+00 -1.359188210211E+00 1.234203313335E+00 2.020040553915E-01 -5.850368424892E-01 1.053116711845E+00 -2.037689545504E+00 1.258082885761E-01 1.216691791093E+00 -2.408409375889E+00 1.036792828965E+00 -4.206291600473E+00 -5.505025145804E-01 3.719365803117E+00 -1.061874504953E+01 9.177449355779E+00 -7.516747096847E+00 1.408071125705E+00 7.780511417771E-01 8.699067091835E-01 -9.844887840825E-01 3.365146115633E-01 1.202145464501E+00 -2.712968340772E+00 3.688414726889E-01 -2.912688328980E-01 1.478485501328E+00 -7.786242402403E-01 -5.459272869251E-01 3.261453959382E+01
 -6.847000365984E-01 -3.002690316453E-01 8.107276052109E-01 -3.670938044203E+00 -2.906232989899E+00 2.438595140987E+00 1.622397404948E+00 6.067004091123E-01 -8.722918942802E-01 -5.553712175173E+00 -5.246062855842E+00 -2.603512217098E+00 -6.416520224844E-02 -5.641747632398E-01 -1.037940883960E+00 9.501998890053E-01 8.033281345876E-01 7.770257844622E-01 3.988371238128E-01 -3.607807631401E-01 1.093334374985E+00 -9.435839468570E-01 -6.895219388316E-01 -3.680912327951E-01 -9.868773250609E-03 2.166439370769E+00 -1.887558114198E+00 5.015074439305E+00 -5.959810339599E+00 4.007860581232E+00 -1.977785509702E+00 4.965323494573E-02 -9.474536168654E-01 -3.573778174162E-01 3.764410500938E-01 6.243660506762E-01 -7.452848406949E-01 2.058827424203E-02 -7.692438809174E-01 6.218838983350E-01 1.121729219612E+00 2.708485019624E+00 4.633511782865E-01 1.066394347045E+01
 -4.987244187973E-01 1.691882106397E-01 -1.430145789944E-01 2.540492316505E+00 2.997397862522E+00 -5.408245983308E+00 1.458310242913E+00 9.255970750586E-01 -9.054823500104E-01 -4.160016206666E+00 -2.526316945112E+00 -2.821181163191E+00 -5.768186128913E-01 2.354366065389E+00 5.497164106648E-01 2.104145937410E-01 1.647300258740E+00 -2.778204617404E+00 -2.695232409022E-01 -6.115499568664E-01 -1.823056728638E-01 9.952127918254E-01 -1.208016749260E+00 -1.740139048537E+00 4.858499853686E+00 -3.616769236948E-01 -1.380657099824E+00 -3.796483135375E+00 4.587661572840E+00 -1.788954305124E+00 -9.345536562085E-01 3.057182818924E-01 -1.420629906916E-02 3.834972986259E-01 1.125247005984E+00 7.850494660444E-01 -7.604934678235E-01 -1.041158287167E+00 6.230428787845E-01 -1.255491564902E+00 -1.500561456879E+00 1.555942833764E+00 -2.998952336088E-02 -3.934391671573E+00 1.146224996146E+01
 7.811952421211E-01 -7.320781173941E-01 -3.750742221775E-01 1.540689237697E+00 -1.095010950695E-01 -1.914009935003E+00 -2.230597588947E+00 1.464892475718E+00 -4.513409736203E-01 4.067387829102E-01 5.596412601377E-01 1.177949681871E+00 -1.944382150182E+00 1.064689038708E+00 5.357336093133E-01 -1.241367883852E-02 2.925193459537E-01 -1.782983895555E+00 1.612976688138E+00 2.129355320965E+00 1.814703233452E+00 -9.223571744930E-01 1.367627827264E+00 -2.865905004488E+00 5.560203845149E-02 5.525188441744E-01 9.771246789887E-01 -1.992139278355E-01 -8.481440095681E+00 -2.453652806774E+00 -1.965899545670E+00 9.541586570738E-01 1.531843355433E+00 -1.852332476558E+00 -3.632449661373E+00 -1.583792045695E+00 -2.163786356712E+00 1.000709184312E+00 -5.972748424061E-01 -9.627594690947E+00 -7.342387719695E-01 -4.994661525788E+00 -2.039504055043E+00 1.168785404838E+00 4.740892338065E-01 3.115791257655E+01
 3.784072241571E-01 1.896644906007E+00 7.291131678783E-01 2.100663797517E+00 1.132604954006E+00 2.182332196555E+00 -5.216735360532E-02 5.644065304621E-01 1.357755039513E+00 -1.310766125582E-01 -7.865121092099E-01 -9.154366493124E-01 -5.986926271219E-01 -2.815343638139E-01 -8.103582640140E-01 1.098562880612E+00 -2.833591011574E+00 -1.337254292545E+00 -2.158671095270E+00 4.429971426492E-01 -1.282735752105E+00 -1.242654909185E-02 1.041792128728E-01 6.330890117564E-01 -5.558639160157E-01 6.666298866478E-01 2.173047756380E+00 2.932983501855E-01 1.374433927379E+00 -1.158514842998E+00 3.749292333481E+00 -7.189878641475E+00 -3.852107724021E+00 -4.315491989914E+00 -5.279724516042E+00 -2.466138774544E+00 -2.685314568997E+00 -8.161437008955E+00 -1.224038787836E+00 -3.886138392925E+00 1.580167590405E+00 -1.742477763660E+00 1.321348860340E-01 -2.845520805632E-01 2.811238118189E-01 1.624520452662E+00 1.740585705745E+01
 1.888616746968E+00 2.179159990528E+00 -8.422316517168E-01 9.513927949565E-01 -1.575050154877E+00 6.542039617518E-01 1.759218714599E-01 1.391608087514E+00 -4.726834166557E-01 1.609428532000E-02 4.132617193624E-01 8.152381126309E-01 1.952534687086E+00 1.153389908224E+00 -3.244320567444E-01 5.957818901201E-01 -1.375344873275E+00 -3.788380788821E-01 2.311813642903E+00 7.173786231646E-01 2.227408962820E+00 -9.309494712639E-02 1.746337059999E+00 -2.377710357558E+00 2.830855859924E-01 1.861355519569E+00 -1.048993500977E+00 -5.550580555155E+00 -7.031153495526E+00 4.983241992517E+00 -1.951165222236E+00 -5.894132088184E+00 -3.660240274309E+00 -5.089205779804E-01 -1.307801205996E+00 -5.745717891974E-01 -1.791048349785E+00 -1.166322291755E-01 -5.266801351716E+00 -1.318768203829E+01 -1.258141876026E+00 -8.601451196895E+00 -4.367606092277E-01 -7.522940926256E-01 1.072708690273E+00 1.013745803888E+01 7.552690937870E+00 1.774368395174E+01
 -6.102404598204E+00 -4.963416162405E+00 -4.304110313723E+00 3.101836578652E-01 2.430365763875E+00 -1.016501955463E-01 1.174820074244E+00 -5.562007821318E-01 1.264298912846E-01 -8.765488510333E-01 3.560817521904E-01 1.370574242513E-01 1.665878668178E+00 -4.378301714476E-01 -6.334794423534E-01 3.791850509261E-01 -1.002559463238E+00 -3.147425999148E-01 -6.118422837327E-01 -6.068646870574E-01 -1.596685277157E+00 -1.035041240067E+00 1.169929818640E+00 3.417526032394E-01 -3.076813560372E-01 -7.369096141478E-01 5.246014537137E-01 1.069642018358E+00 1.546685806616E+00 3.214131100722E+00 8.926026778792E-01 -8.612675070170E-01 -1.829027106929E+00 -4.103550076184E+00 4.353284190600E+00 2.785173733587E+00 -6.107241886675E+00 -3.417336769326E+00 4.469857053020E-02 -4.045024890197E+00 2.766231202375E-01 2.081936570162E+00 9.051314347085E-01 2.963783187345E-01 1.741420290881E-01 -1.625852695633E+01 3.537119733223E+00 3.816698410078E+00 3.193494014944E+01
 -5.239402624563E+00 -4.506410084026E+00 -5.529989140941E+00 1.746615147099E+00 -1.591145342255E+00 1.445083063750E+00 2.876926619300E-01 -7.350383780458E-01 -2.517485549348E+00 -2.685977366760E-01 2.031786913070E-01 3.556830005796E-01 1.818425872095E-01 9.460127370412E-01 1.818505218570E+00 5.129228169492E-01 -4.732946733262E-01 -1.229181889299E+00 2.190427732015E+00 -1.300169796945E+00 1.750415817814E+00 -1.665555863429E+00 2.553033473150E-01 -1.641298806364E+00 -1.093819018120E+00 4.255457657858E-01 1.665781596163E+00 1.912467366199E+00 -2.151833483212E+00 1.839369524906E+00 -1.615214840311E+00 2.368026203652E+00 -1.252241889962E+00 4.854813056555E+00 -1.437628896329E+01 -2.041160725235E+00 -4.780309745749E+00 -6.148389706904E+00 4.260024221557E+00 4.272024279704E+00 -2.561155597685E+00 -3.046925429907E+00 -1.443076007778E+00 -1.065407951876E+00 -9.827428578935E-01 2.019299540149E+00 -3.261079800760E-01 1.283593672008E+00 -9.724384077223E-01 3.014351320513E+01
 -7.334416842937E+00 -4.987076414688E+00 -6.660728341857E+00 -2.197302167491E+00 3.614214984503E+00 -8.485902505504E+00 1.415766453590E-01 -3.097119582167E+00 -1.415978774822E+00 -6.251147403611E-01 5.207057086574E-01 1.642151926367E-01 -2.576501290497E-03 2.954604024314E-01 1.665580638964E+00 7.173156123565E-01 -7.019965511210E-01 4.767148501370E-01 6.046992245091E-01 1.174394666174E+00 -1.493555010786E+00 -1.091174415049E+00 2.128723013084E-01 7.330979455611E-01 9.309999098715E-01 -1.769490056419E+00 -6.415072447203E-01 3.873906874457E+00 -4.544529141358E-01 -1.813452077741E+00 2.633891694494E+00 7.346325845114E-01 4.531974011180E+00 1.387950329747E+00 -3.254016774402E+00 -3.118149250575E+00 3.719957566282E+00 3.501861243104E+00 -2.585319570372E+00 4.836500835674E+00 -3.431074982870E+00 -1.006766871220E+01 -6.942563521334E-01 9.899616050069E-01 1.909064647330E-01 1.363273876084E+00 -2.349469806976E+00 -2.810252131024E+00 -3.751581272056E+00 5.609896667246E+00 3.112510888475E+01
 1.002232933863E-01 -3.119120912246E-01 3.074581464855E-01 2.143319002922E-01 -5.306276708845E-01 -4.542024291381E-01 -2.200907913840E+00 -2.099259155022E+00 -9.572715790549E-01 1.640084137632E+00 1.145404670349E+00 -1.052535345250E+00 -7.672622795892E-02 9.230111904772E-02 -2.292142476575E+00 -2.513676457871E+00 2.112260051570E+00 5.788702598864E-01 2.393012689633E+00 3.590420219942E+00 1.057565121822E+00 -2.209218253727E+00 6.625520798939E-01 -5.468985187754E-01 -3.048181986020E+00 3.752088140055E+00 -1.847579275758E+00 -1.462725248275E+01 -8.694105066002E+00 6.535796708920E+00 8.827152665452E-01 -1.105732397340E+00 1.538341266378E+00 1.248253220322E+00 5.509720219042E-01 1.086952107819E+00 -1.740479791417E+00 -2.298299158951E+00 2.385227391199E+00 -2.391780131660E+00 7.951109212343E-01 6.226921925727E+00 -2.981481497385E+00 2.262654261751E+00 7.237258107038E-01 -3.698628308603E-01 -4.154465382784E-01 1.463751384190E+00 1.605414005090E+00 6.031963455224E-02 -2.823601516633E+00 2.552684224679E+01
 -1.343123563402E+00 -1.153799629877E+00 -6.279472495193E-01 -1.228028799699E+00 3.176992092847E-01 -1.162645474356E+00 -6.982382037089E-01 1.008509969272E-01 1.123679227465E+00 -1.211432078492E+00 -2.110095163477E+00 1.477520232131E+00 1.685916959407E+00 6.001376745277E-01 1.790301022990E-01 2.009666820202E+00 -1.967412820507E+00 -1.588248580629E+00 2.483469262717E+00 -5.074250820651E-01 -3.246424141557E-01 -2.327326572245E+00 -1.071293551842E+01 8.708900313393E+00 3.275516972760E+00 -2.259184308540E+00 2.160455070660E-01 -2.748982940225E+00 3.586831192743E+00 6.829491768787E-01 -8.246421845728E-01 4.740478863320E-01 6.262138591410E-01 2.672778117974E-01 5.585051669757E-01 -1.927013790656E+00 7.274549465978E-01 -1.194320218147E+00 1.292286390051E+00 -5.672033803995E-01 -1.443149431321E+00 -8.392023078135E-01 3.802924641889E+00 3.287188377386E-01 -8.088206449867E-01 -5.611031557309E-02 8.008973888855E-01 1.480736035799E+00 -1.755192151343E-01 -1.219670641221E-01 1.598894213748E+00 4.479256969416E-02 1.575287361379E+01
 -9.047506110879E-01 1.349337469340E+00 -9.516323959782E-01 1.104652217636E+00 -1.292417589771E+00 2.889160028782E-01 9.300059732400E-01 1.258104044026E+00 1.305531948192E+00 -7.662115670901E-01 -5.926317305623E-01 -9.003596185580E-01 1.638166418744E-01 2.256453388515E-01 1.721569429600E+00 2.720125088086E+00 -3.082157207411E-01 -5.821226908901E+00 3.477571043856E-01 5.657811319941E-01 1.787507840318E+00 2.411856666108E+00 4.356984557782E+00 -5.234901003872E+00 -3.171639447071E+00 2.000820428875E+00 -2.317462316805E+00 6.175361598139E+00 4.785225307438E-01 -3.046768589560E+00 -2.515956851575E-01 9.299333371816E-01 -9.178451610031E-01 1.725441086206E-01 -5.644663840750E-01 -5.436883568537E-01 -1.190120542242E+00 9.063205097810E-01 -1.030383661562E+00 1.129858686934E+00 1.397071219893E+00 -3.479163781843E+00 4.988220926463E-01 -1.472661540809E+00 2.150928107986E+00 1.412571504477E+00 1.867452773869E+00 -7.487870443276E-02 -1.058020545950E+00 -5.585453311828E-01 4.988921441294E-01 -9.522003013379E+00 -1.060342362350E+01 1.773830579027E+01