#BIOSYM hessian 1
@Type: Hessian Update
@Units
 distance: 	A
 energy: 	Kcal/Mol
#header
@natom 19

#label
L1      L2      L3      L4      L5      L6      L7      L8      L9      L10     L11     L12     L13     L14     L15     L16     L17     L18     L19

#element
Li Li Li Li Li Li Li Li Li Li Li Li Li Li Li Li Li Li Li

#matrix
57
 1.884415920657E+01
 3.685136638270E+00 1.852159693064E+01
 3.616317113480E+00 2.981247457708E+00 1.745302524061E+01
 -1.147036040357E+00 -6.367246817681E-01 -1.689057831519E+00 1.841181456276E+01
 3.821189688473E-01 -1.147441824503E-01 -5.602586599381E-01 -1.577937224887E+00 2.289345580111E+01
 9.900363987236E-01 4.257406337052E-01 -8.474617765949E-01 6.217775821540E-01 -2.269083009925E+00 1.676792602777E+01
 -1.880851979295E-01 -1.446074120146E+00 2.867674389757E-01 7.116857278006E-01 1.843399892737E+00 1.030593433296E+00 2.007898569151E+01
 -3.856958378032E-01 5.716694061313E-02 -1.304338304977E-01 4.418035620599E-01 4.907572285399E-02 1.990621544495E-01 -8.824544059625E-01 1.588061130134E+01
 4.444706515829E-01 1.330198197365E+00 7.527408507311E-01 -1.744792289586E-01 -1.766770120673E-01 -8.080103480856E-01 1.789979861654E+00 -1.909621323788E+00 2.210122300255E+01
 1.219936081627E+00 1.830906038783E+00 2.107531577107E-01 8.357326577106E-01 -3.802812861459E-01 -4.502114583272E-01 -7.155421430549E-01 1.083543235138E+00 -1.480641583411E+00 2.042706106382E+01
 1.566541862715E+00 1.516341347023E+00 1.205873311669E+00 -4.329115164808E-01 5.313259627475E+00 -3.452159623054E+00 -1.132629073320E+00 -4.143169680877E+00 2.783604182264E+00 2.755815161301E-01 2.102600038166E+01
 1.115590019421E+00 -7.525585841485E-01 -7.191006587810E-02 2.652185363070E-01 5.509334945640E-01 -2.082945818304E-02 2.069910786431E+00 1.429618697405E+00 -2.690631828226E+00 -1.759942006152E+00 -4.240045831971E+00 1.753159597979E+01
 2.941619990156E+00 1.004783784784E+00 -2.501252605297E-01 5.865224167189E-01 1.890683097246E+00 7.385993654274E+00 9.138559786338E-01 -1.416224260538E+00 1.214569149610E+00 2.832495694920E+00 3.840704226551E+00 -4.393904767071E-01 2.945643826023E+01
 2.152536853333E+00 3.304560937002E+00 2.727056557462E+00 -4.841891382299E+00 -9.435685614552E+00 -4.740790023178E+00 2.717088637803E+00 -2.351376654023E+00 -1.343377514637E+00 -2.368142699324E+00 -3.516833195016E+00 4.444367537564E+00 -1.740549529308E+01 4.843985183444E+01
 1.435170619181E+00 1.770007403823E+00 3.245028259829E+00 -1.161434706723E+00 -2.586317380150E+00 2.665493108398E-01 -7.947499549438E-01 -1.206722480575E+00 1.330026697765E+00 -8.954086886920E-01 7.628263937634E+00 3.161381644125E+00 -6.179373240757E+00 5.698210896128E+00 2.232527000489E+01
 5.668506117234E-01 6.934516062195E-01 1.157480116240E+00 -7.931032643031E+00 4.011788428512E+00 -5.789910903487E+00 -3.427496004649E-01 -6.405323862965E-02 -1.027092377953E+00 4.473631794191E-01 2.234311827007E+00 9.230214551603E-01 -9.003356513854E+00 -8.144462653733E-02 3.326522154652E+00 1.871646645288E+01
 -7.363094709046E-01 3.878257896022E-01 -2.961970604041E-01 2.406009526079E+00 -2.856358216157E+00 2.191756953152E+00 7.951111264848E-02 1.906479787523E+00 6.297158757453E-01 -1.105670439114E+00 6.452560061186E-01 -1.157165910079E+00 5.527254773751E+00 2.330996016359E+00 -3.038071393846E-02 -3.078263625874E+00 1.776356063678E+01
 -1.453783320559E+00 -9.071381563931E-01 -6.599881548000E-01 -5.744309251593E+00 1.634430958763E+00 -2.221111913832E+00 2.795935199381E+00 1.337897092157E+00 7.373421536435E-01 -2.856203971741E-01 -1.323885408968E+00 -5.805947649737E-01 6.698773487873E+00 -3.091495467164E+00 -5.246686596088E+00 -2.831109442703E-01 1.085068906132E+00 1.973192649832E+01
 -5.883686196937E-01 -1.251998266999E+00 6.878327168143E-01 -3.383807174163E+00 2.411286108666E+00 4.356501010046E+00 1.486730512997E+00 -4.379623003448E-01 -1.773422169551E+00 9.240848151080E-01 1.203077193920E+00 -9.529369525539E-01 -1.472868776930E+00 1.659850145401E-01 4.778448816408E+00 2.030063448550E+00 -6.205739892631E-01 -1.963553492071E+00 9.798857574768E+00
 -1.429212747816E+00 -6.143815631743E+00 1.700985787182E+00 1.822269111679E+00 -4.099185645347E-02 -3.401305957948E-01 1.678103494373E+00 -7.458585525031E-02 -1.604777716462E+00 8.875149733930E-01 -5.578109247369E-01 3.269915314785E-01 -4.842880410153E+00 1.404918427224E+00 -1.127571365942E+00 1.186154032462E+00 1.496343352011E-01 -9.912171577511E-02 3.260452585592E+00 2.249769018486E+01
 1.294895154480E+00 2.903785024605E+00 -3.462766512535E+00 4.006816364030E+00 -1.186993918341E+00 -6.070380530282E+00 -1.254397454274E+00 9.553163935797E-01 2.057502310985E-01 1.280242552610E+00 -2.035437578393E-01 2.913436039215E+00 -2.201429046517E+00 3.895687777600E+00 -5.419092747243E+00 2.557384956082E-01 3.375695396072E-01 1.838648980727E+00 -1.040334125204E+01 -7.527927295727E-01 2.041787382593E+01
 -5.949128130428E+00 -7.809869155973E-01 3.554228454709E+00 4.895679359013E-01 -8.094473577747E-01 -7.137371242940E-01 5.314430473956E-01 1.849938857120E+00 -8.139900027189E-01 -1.371458957187E+00 -1.647296051428E+00 5.739764592511E-01 4.379395335534E+00 -1.866887308156E+00 -3.765665959434E+00 -6.542795421490E+00 -2.093196062491E+00 3.869827610202E+00 -3.258950770254E+00 1.353358631161E+00 -1.017942049833E+00 2.165611094251E+01
 -1.106104042669E+00 -3.789795879913E-01 1.495118184802E+00 2.984954046604E+00 -2.635733414229E+00 5.646711875446E+00 -5.798470058822E-01 1.497743689167E-01 2.937524157737E-01 1.204578444402E-01 -5.081229941019E-01 -2.555444570718E+00 1.281956423641E+00 1.777562794605E+00 -2.354133647696E-01 -2.936005204821E+00 -2.638755005093E+00 -1.424394752951E+00 2.036236440995E+00 -4.006283808050E+00 -5.273294968516E-01 1.786951558220E+00 1.483502039684E+01
 5.161770153065E+00 1.885027839852E+00 -1.421086609011E+00 -9.765383693212E-01 6.031442845660E+00 -3.736878263079E+00 1.722736440403E+00 -3.065525580981E-01 4.850783257325E-01 -2.307896629276E+00 9.185131841759E-01 -1.285924812717E-02 3.635832748053E+00 3.663786184172E+00 -4.159968104587E+00 2.279316298910E+00 2.306588276446E-01 -1.610586800779E+00 -8.178985525196E-01 -2.134631414507E+00 1.928616293515E-01 -4.747690082897E+00 -5.650042741223E+00 2.326808980669E+01
 -4.131683668405E+00 -1.027773892310E+00 -6.591003467333E-01 1.483061988392E+00 -3.161743939650E+00 8.651164216142E-01 8.836258088276E-01 1.319236842832E+00 2.338613389713E-01 -3.090681056572E-01 -1.997124346712E+00 6.044594726231E-01 -3.733959736684E+00 6.837217736055E+00 1.458491690905E+00 1.349224962743E+00 -6.628087264362E-01 6.784274858748E-01 -2.396306393185E+00 -9.204155948327E-02 4.706213621407E+00 -5.663534252381E-01 1.901687591497E-01 8.897931960453E-01 1.507610380103E+01
 1.213667264031E+00 -7.049291924775E+00 -4.625315196562E+00 1.323300017443E-01 -2.226021519643E+00 -1.645141545960E+00 1.046325357016E+00 3.552219792847E-01 5.472562438132E-01 6.490108729412E-01 -1.334479387791E+00 2.725865115382E-01 -4.188342015458E+00 5.048332299896E+00 -3.502461570877E-01 -7.290341850156E-01 -6.265288822293E-01 3.041882621647E+00 -2.120775927668E+00 -1.604167772308E+00 1.218500360322E-02 5.428797985296E-01 -1.806702314238E+00 -3.995410076058E-01 3.174632628132E+00 2.363604796547E+01
 4.991441407607E-01 -1.629134695717E+00 -2.000511536400E+00 -1.912923308493E-02 9.903984627376E-01 -9.655492316244E-01 2.454152435037E-01 1.126708915646E+00 -2.765014830222E-01 -2.503285925091E-01 1.341416632160E+00 -6.890997147781E-01 3.107142308376E+00 -1.436115478929E+00 4.032575981707E+00 -7.168794983577E-01 8.412112334437E-01 -1.030436688742E+00 2.233572358444E+00 -2.061725853345E+00 -7.687088412356E+00 -7.512541485422E-02 -1.589108120992E+00 1.804051913301E+00 1.525723069664E+00 -3.484764981969E-02 1.955196984225E+01
 4.132815840059E-01 4.311629160671E-01 -1.736363646730E-01 -4.261991360871E+00 -4.241951782146E+00 -2.635563819298E+00 8.117852258978E-02 -6.392236112708E-03 4.986265161958E-01 9.238175221508E-01 -1.089037475240E+00 3.470274889968E-01 -9.865912064086E+00 5.887366954219E+00 4.829111238417E+00 -3.693514801307E-01 -4.218551745228E-02 -5.388705936287E-01 1.745357778037E-01 -6.263461685100E-02 1.491315937303E-01 -1.390717271190E+00 -2.772471928357E+00 5.235268689282E-01 1.073602498277E-01 1.114347582569E+00 -2.890050650493E-03 2.056812787981E+01
 7.980914555500E-01 1.854494574393E-01 1.229706309619E-01 -2.402804981576E+00 -4.429935521127E+00 -1.322455410240E+00 -1.601287314103E+00 -1.111153985006E+00 9.602276940950E-01 -1.004875355485E-01 -2.318308122494E+00 -1.257132478736E+00 4.200033495720E+00 -1.401770118968E+01 -5.123051190080E-01 9.725004141955E-01 -7.232369262908E+00 3.552570804294E+00 -2.252559589370E+00 -1.070012959819E+00 6.350856859316E-01 8.402276161080E-01 -1.535399142267E+00 -2.580209389470E+00 1.623729162420E-01 1.652176460654E+00 -7.219880921354E-01 3.459126299036E-02 2.066833095747E+01
 4.173138679934E-02 -7.912620131031E-01 -5.117615002918E-01 1.258817317173E+00 3.511907852022E-01 -1.521075658251E+00 -1.398967360793E+00 2.498793191463E+00 -4.129618104161E-01 -1.082413001184E+00 -6.194699139705E-01 -1.128328343581E+00 3.253048449477E+00 2.439812016316E+00 -1.000091576275E+01 -2.000693426175E+00 1.412733416398E+00 3.623657166381E-01 -2.666551114619E+00 -7.308735107326E-02 3.690466693475E+00 1.493569740722E+00 1.830540350146E+00 4.700756374518E+00 8.492349341984E-01 -5.526733445651E-01 -7.671082299973E-01 -2.384909917034E+00 -5.100510964759E+00 1.372736000218E+01
 -6.493142146505E+00 1.689193117771E+00 -2.784923369121E+00 1.385114808775E+00 5.228298672336E-01 1.042288470961E+00 -1.043227345244E+00 -1.285931487659E+00 -1.029262818852E+00 -1.427185516647E-01 -1.011435142202E+00 -8.316194295387E-01 -3.971470155297E+00 3.217357664595E+00 6.719951206207E-01 -8.901493111475E-01 -1.115773294544E+00 -6.317761031411E-01 -7.171918523323E-01 -7.661467081044E-02 1.635485045829E-01 -1.432695588278E-01 6.344698065203E-01 -9.183104324730E-01 -5.873569279785E-01 8.748175929598E-01 -6.186594622039E-01 -4.930361772125E-01 -1.216895485274E-01 -1.255052485707E+00 1.497242611169E+01
 2.162238657768E+00 -2.473720175898E+00 8.277053129019E-01 -6.633829884951E-01 -8.292865580299E-01 1.304152547475E+00 -3.281179563417E-01 -3.784522925475E+00 -3.501464171366E+00 4.790410927900E-01 -9.610811777052E-01 1.773527998746E+00 4.743095234727E+00 -2.333853985134E+00 -1.870826346344E+00 -3.627493166923E-01 1.628037494018E+00 -5.360511919483E-01 -4.208788510219E-01 2.574014957955E-01 -4.848869606520E-01 -2.159745203566E+00 -5.199516023913E+00 3.782968007694E+00 9.664651856942E-01 -2.756090347438E+00 -6.110739080934E-01 -5.479114933957E-01 7.202739499061E-01 -1.076920509848E+00 7.596660632951E-01 1.644799368323E+01
 -3.659246033428E+00 -4.039416938005E-01 -2.636742705412E+00 1.967922854618E+00 -4.340020638547E-01 1.302669779581E+00 -3.744390492124E+00 -5.040558368223E+00 -4.685062945319E+00 4.911129919458E-01 4.611498191519E-01 3.108578683640E-01 3.573862038086E-01 -1.916095096503E+00 2.158427998585E-01 -6.252727646409E-01 -3.997551967189E-01 1.071697700568E-01 8.933062005104E-01 1.239370632489E+00 -5.111278247988E-01 -9.089460489285E-01 4.095937248428E+00 -7.723030376270E+00 -4.825766795164E-01 4.794103282600E-02 -6.050316551709E-01 -7.333835284474E-01 1.550020732818E+00 -1.068209768173E+00 7.884942966162E-01 8.867160003707E-01 1.865117405590E+01
 -9.563561850259E-01 1.206128875784E+00 1.954329263941E-03 -3.601632238154E-01 -2.195124889789E-01 -2.617494267712E+00 -4.815424475488E-01 1.736414377056E+00 3.045063427855E+00 -2.860115728043E+00 7.613124068740E-01 8.190862240776E-01 -3.665183841476E+00 5.885821092220E+00 2.542876330926E+00 -1.352716997755E+00 2.103599182878E+00 2.762806644126E+00 7.527659976040E-01 7.922422407410E-01 1.574712678419E+00 -5.679029885932E+00 -1.741618596839E+00 -3.213924556276E+00 3.149912863447E+00 7.927391106842E-01 -1.822846421849E-01 9.311734816030E-01 -5.366196998980E-01 -1.740041592003E+00 -3.873140453102E+00 -3.886358187905E+00 2.154677548450E+00 1.758364324553E+01
 -2.158963225152E+00 -2.540486065258E-01 -3.066247503749E+00 2.408229177317E-01 -1.969234624010E+00 5.574651524160E-01 1.352982975495E+00 -1.552439737085E+00 1.256999860360E+00 2.485534128515E+00 -3.275979371919E+00 -3.713187451749E+00 -2.625714169125E+00 -1.382446392224E+00 3.973830623918E+00 -5.458330692228E-01 -1.407478079357E+00 2.098808831752E+00 -7.993147459278E-01 -1.116068173210E+00 -8.202777499603E-01 -2.265671861672E+00 4.626379277171E-01 -1.993688279739E+00 2.568544371858E+00 6.003070162342E+00 1.412931986258E-01 1.983050444792E+00 1.305857004787E+00 -1.012040138262E+00 -1.901151012777E+00 -7.358638094851E+00 7.660176655686E-01 6.141720286038E+00 2.452417547929E+01
 5.511623798496E-01 6.156563848266E-01 9.457676633357E-01 5.839536149531E-01 -3.618281989535E-01 2.283346440688E-01 -9.849834049616E-01 7.531564389656E-01 -7.603209451552E+00 4.839252177666E-01 -3.739955876699E+00 -1.256006463447E+00 -2.828937084471E+00 1.943914467389E+00 -3.131470382205E+00 1.161122431259E+00 6.080522662917E-01 -7.908971598975E+00 1.291843890156E+00 1.661405977505E+00 -2.274799679319E-01 -3.692843964702E+00 -1.611778497929E+00 -2.432455936589E+00 -2.706574414384E+00 -8.348392317549E-01 1.378399027363E+00 -1.057390934089E+00 1.472290597592E+00 5.002582974070E-01 7.381632821614E-01 2.099038710206E+00 -1.728295184492E+00 -1.951420021878E+00 -3.692615621136E+00 2.293590540180E+01
 -3.913544464357E-01 -1.149766576104E+00 -1.644915855081E+00 -3.249084014825E-01 -3.138427142734E-01 3.438641931302E-01 -5.018465721789E-01 3.502919680049E-01 -3.463895306780E-01 -1.570195181272E+00 1.581799054773E+00 -1.203411476147E+00 -5.071305829147E-01 5.154144874970E-01 4.477727954890E+00 1.637139877376E+00 8.308070348197E-01 -4.831180938182E-01 5.956510924113E-01 -1.620923950313E+00 4.197260984376E-01 -5.429813466332E-01 2.534344719796E-01 2.306758716487E+00 4.218138633073E-01 -1.338871699373E+00 2.109058715381E+00 -3.510633736697E-01 -1.457098514882E+00 -2.786997889945E+00 -3.724349082806E-02 1.052559154581E+00 -1.418335919035E+00 2.213986352650E-01 -2.259861602892E-01 -3.815151573809E-01 1.854853107594E+01
 -1.224393070672E+00 -3.142514908072E+00 -2.696332436938E+00 -3.678069532589E-01 -7.058961339086E-01 3.952522558339E+00 -9.114550303827E-01 7.703271740364E-02 6.223559925455E-01 3.993419538114E+00 -3.111005141458E+00 3.501156402046E+00 1.322994506828E+00 -7.916025949643E+00 -2.836928185687E+00 -5.380932156902E-01 -1.212759443606E+00 4.503266874837E-01 8.490963420554E-01 -6.551864986520E-01 -1.071081705879E-01 -1.361730193626E+00 1.625567504840E+00 5.076571534573E-02 -2.937162913346E-01 6.049251869115E-01 6.949158778382E-01 2.103501080433E+00 3.198184730252E+00 -3.335128845862E+00 -2.506495562422E-01 -1.197182392186E-01 5.619646766885E-02 -3.093844012707E+00 4.031864857762E-01 6.006754890295E-01 3.626333829084E-01 1.623605136790E+01
 -4.435335569508E-02 -4.555535177626E-01 -6.468954213131E-01 -5.491816421666E-01 -1.237580016691E+00 4.325725912118E-01 -5.464533235430E-02 2.837229315924E-01 2.963053617477E-01 -7.372700854130E-01 3.779538755341E+00 -3.387708323147E+00 6.631572291818E-01 -1.503147831602E+00 -9.071859523219E-01 9.807232378029E-01 6.001897909909E-01 -2.849922188449E-01 -4.450270162063E-01 -9.675000060149E-01 -4.145927279766E-01 -6.842348211503E-01 -2.054592394399E-01 -1.078403569228E+00 4.769354977633E-01 1.309677104971E+00 5.024471471551E-01 -1.494143522797E+00 9.047057833085E-01 2.723669620277E+00 1.049233669519E+00 1.344586935375E+00 2.542203172072E-01 6.524930173098E-01 4.015938072079E-01 2.300316779028E-01 3.943913595480E+00 -2.397969781141E+00 7.825849656297E+00
 -5.698293223815E-01 7.348424227229E-02 8.317782297787E-02 5.157315345683E-01 1.408708179210E-01 -2.430063323410E-02 -4.261062410294E+00 3.029728553971E+00 -1.790160499472E-01 -6.313872209940E+00 -1.611097507560E+00 3.298850872596E+00 -3.126355543429E-01 -1.965016492829E+00 -1.941094178724E-01 -2.659590508835E-01 -3.683997726907E-01 -4.307115514190E-01 4.989002290889E-01 -1.061049179875E+00 3.002349979961E-01 3.112184361960E+00 1.183376980745E+00 -1.035170564122E+00 -5.829438735360E+00 -2.946014352976E+00 -4.380754370444E+00 -1.132210130656E+00 7.838561085736E-01 8.486940255930E-01 3.044705619018E-01 -9.170530903546E-01 1.600815179481E+00 1.124032197495E+00 -1.786032562126E+00 5.137159023594E-01 -2.069361580532E-01 1.301711358509E-01 -4.442832091710E-01 1.998658874185E+01
 -2.853197731265E-01 -4.107175359977E-01 2.782597489939E-01 3.513886041861E-01 9.460813908626E-01 -8.202719560439E-01 4.219034990700E+00 -3.539387413930E+00 -7.689321573233E-01 -2.203818519977E+00 -1.683908152639E+00 2.672847252642E+00 -4.377052859385E+00 9.053458074259E-01 -3.501821189317E+00 1.085043784300E+00 5.103099081123E-01 5.993304311087E-01 -6.349307492037E-02 -5.401924571866E-01 1.231219289427E-01 -2.817588155344E-02 -1.649552533463E+00 2.041368991191E+00 -3.170085646898E+00 1.519827991903E-01 -1.743312904619E+00 1.140423096723E-01 -7.204467377001E-01 1.668459447558E+00 7.357131327630E-01 -9.286334086668E-01 -1.506264925371E+00 -2.220611344208E-01 5.047734797540E-01 -1.033559095370E+00 6.740238071455E-01 -1.047493558086E-01 -3.397115651268E-01 1.598570585181E-01 1.593567476087E+01
 -1.126044783835E+00 7.665925805065E-01 3.984015809317E-01 -1.163619471119E+00 2.029614904548E+00 -2.467793044844E-01 5.089175839789E-01 1.805212708164E+00 -2.218870038166E+00 3.459097634291E+00 -1.700093981477E+00 -1.507725599847E+00 -1.430720497939E+00 -2.072968754318E+00 5.410912780765E-01 -6.250429686335E-01 4.347507911571E-01 -1.983262666590E-01 2.844046791400E+00 -2.822111827410E-01 7.203884417737E-02 -1.425982425234E+00 1.905172739396E+00 -1.691564915080E+00 -4.838485332221E+00 6.011631751161E-02 -3.751781778799E+00 -1.384399178707E+00 -5.200138928419E-01 -2.215283296015E-01 5.055963047934E-01 -1.847065560431E+00 8.626147136716E-01 -6.531742846796E-01 2.763367932134E+00 7.328085614591E-01 6.234230646835E-01 1.395283944050E+00 2.689767616916E-01 -2.505325393455E+00 1.939041672137E+00 1.738405254704E+01
 -1.802112129493E+00 -2.883301469739E+00 -4.777641203062E+00 -1.241977534217E+00 -1.610896694212E-01 -2.181044973478E+00 -2.914158549221E+00 -2.095789349059E+00 -5.421115923387E+00 -5.221392851573E+00 -4.414105545034E+00 -3.705431496228E+00 -1.533027832790E+01 1.252679847451E+01 -1.123080751169E+00 2.076486741758E+00 4.257371297781E-01 -2.750050646564E+00 -3.160783890123E-01 7.754849834244E-02 8.466495706675E-01 -4.097343075136E+00 -4.167373696444E+00 3.756785923963E+00 5.126556453999E+00 9.816273337718E-01 7.729172144048E-01 4.610287379819E+00 -5.603140952086E+00 3.195826956604E+00 3.219853755220E+00 6.887931983616E-02 -2.950644181888E+00 -1.019976360852E+00 4.121455030729E+00 3.995199753030E+00 2.897778885377E-01 1.918900675325E-01 -4.830887322303E-01 -5.005716545769E+00 4.519909482385E+00 1.989032587121E+00 2.917596171058E+01
 -4.323618002844E+00 -3.401582652293E+00 -1.678973844217E+00 2.685179234130E+00 3.885592403551E+00 2.476832630860E+00 -2.309780533547E+00 -2.164795348214E+00 2.909955730555E-02 -8.849491048821E+00 -2.024036152907E+00 -3.623478696903E+00 1.258442594567E+01 -3.160396630712E+01 -9.922666379794E+00 -1.304247247242E+00 -4.031981246133E+00 4.427819535930E+00 1.884336335468E+00 1.100297862094E+00 -2.885110676544E+00 8.531462312172E+00 3.111172117384E+00 -2.079363483843E+00 -4.009468079095E+00 -1.139570107844E+01 1.152357832715E+00 -3.812680822002E+00 9.115352706254E+00 -1.691745555742E-02 -2.552121306466E+00 9.453247741316E+00 5.630235428173E-01 -3.862429224409E+00 -9.468385305434E+00 -3.360247732361E+00 -8.536275198136E-01 6.998515109382E-01 -2.801476548662E+00 8.833393651459E+00 3.991662159835E-01 -5.797267950306E+00 -1.011576416470E+01 5.937385247684E+01
 -5.859571723496E+00 -4.993135791699E+00 -3.624613213526E+00 1.944775565676E-01 1.986773754032E-01 5.493496962274E-01 2.225398434039E+00 -2.247857070853E+00 -3.477391927421E+00 -5.453048401806E-01 -2.334598778443E+00 -4.213026498961E+00 -6.733816016800E+00 -7.918663540175E+00 -3.283009503931E+00 3.632125299795E+00 -2.389226122215E+00 5.724991494787E-01 7.774398289055E-01 4.094586552396E+00 -1.693632556009E+00 3.183993847542E+00 -1.499908750665E+00 -9.256317354397E+00 -4.775035686174E-01 -2.461941337744E+00 -4.415385553102E+00 -1.006772714608E+00 6.917269474299E-01 -3.019142488161E+00 -1.886129912058E+00 1.568035226412E+00 2.509036187287E+00 -4.085426468476E+00 3.169397751308E+00 1.166660103444E+00 -3.490056874428E+00 1.388695836945E+00 5.029418978115E-02 -7.182777946755E-01 5.288881690240E-01 1.573754401467E+00 9.416733590449E+00 7.150865787010E+00 2.277025248730E+01
 1.068193611916E-01 7.078402329564E-01 2.280278500666E+00 -4.541189166218E-01 1.118136595817E+00 8.624364767601E-01 2.133879817555E-01 4.048199586899E-02 1.191404529491E+00 -6.060560123547E+00 7.986309032621E-01 -2.697434525325E+00 1.702079122485E+00 -5.510893596465E+00 -5.382111999648E+00 7.444239752166E-01 3.155985891832E-03 -6.400934217686E-01 -2.450067125292E+00 2.264577272736E-01 -1.229055759168E+00 1.140300677407E+00 1.838894802772E+00 -1.464595219322E+00 -3.638691661832E+00 -2.982512971794E+00 -5.812248739111E-02 -5.840267345730E-02 8.062926218409E-01 2.239062521473E+00 9.099404087623E-01 -3.887760140378E-01 9.702911245596E-01 2.325109386054E-01 -1.007448562439E+00 4.822641868910E-01 -6.533686170811E+00 -4.114551664223E+00 2.228218941625E+00 -1.141471689084E+00 1.737368382648E+00 -2.521051383351E-01 -3.012154368676E+00 6.594955458663E+00 2.383542641805E+00 1.738308416676E+01
 -2.120001381843E+00 -7.486084910329E-01 5.207729309216E-01 -1.505061822093E+00 -1.547664085546E+00 1.680987355609E+00 -2.310574913456E+00 2.049206785699E-01 -6.596895752176E-01 5.227197323150E+00 -9.603495605045E-01 -2.093084717367E-02 1.866614634581E+00 4.793861661558E+00 1.660343577366E+00 -9.206573806157E-01 8.870924651410E-02 -1.404491981187E+00 1.750700559452E+00 -3.645342793363E+00 -5.014668156165E+00 -3.349348992449E-01 1.736856406094E+00 -1.900648809426E+00 -2.769281466223E+00 -2.996392173755E+00 -4.620932621060E-01 -7.744191276780E-01 1.805129695313E-01 -1.834726027301E+00 -1.134319301647E-01 1.116190003640E+00 5.530930471065E-01 -1.311380962895E+00 3.825310047381E-02 1.143449150432E+00 -3.106396716019E+00 -1.673527096620E+00 1.836346358346E+00 -1.963086379264E-01 -3.083676340325E+00 2.446051177273E+00 -5.276628896034E-01 -1.103144086122E+01 4.493390673354E+00 2.582989942595E+00 2.147676596939E+01
 1.455119695403E+00 -2.457780983985E-01 -6.768423933688E-01 1.248024678881E+00 5.942332068985E-01 -1.073345592376E+00 -1.443669145171E+00 1.380175648897E+00 -1.737148551502E+00 -3.395319749484E+00 -2.614191234026E-01 -2.824770635896E+00 1.962888472242E+00 -9.778407228462E+00 -6.994893372818E+00 -8.366919040233E-01 -1.227024380028E-01 3.839291645342E+00 -3.165539160195E+00 -4.261598361359E+00 -2.750344944366E+00 1.506056064883E+00 -2.835836227269E+00 1.966836621076E+00 -1.648574553153E+00 2.548739270128E+00 -3.117618103921E-01 2.409645876149E-01 4.217075404913E+00 1.194702537711E+00 -7.550654732521E-01 6.078545522125E-02 -9.981632364195E-01 -1.470888154899E+00 2.294264374085E-01 -1.383807986453E+00 2.168186004153E+00 1.366920234231E+00 -3.107469234777E-01 1.893181276397E+00 2.067599829233E+00 -1.008644015115E+01 3.530783606461E+00 9.984630574416E+00 4.627955377580E+00 -8.096607669799E-01 -5.807508969982E+00 2.761709265637E+01
 -4.468114737757E-01 -2.579672739737E+00 -1.310907016504E+00 -2.794650833209E+00 -2.616035601932E+00 -3.272203305674E+00 -2.019518523490E+00 -1.150943677033E+00 2.192823226362E+00 -9.061907116814E-01 1.273216008316E-02 3.762269020761E+00 -1.610883040665E+00 3.587371948222E+00 -1.608716315497E+00 -5.258150568693E-01 -2.751648615108E+00 -1.247591937926E+00 8.400035449402E-01 -1.536158501635E+00 -8.835750916175E-01 -2.277447147860E+00 6.061965598665E-01 -9.356880777509E-01 -1.887424688785E+00 2.684886507392E+00 -5.306415002972E-01 -3.276356987177E+00 1.133589578409E+00 5.090024978833E-01 4.443766816016E-01 -3.585510601860E-01 -5.091778409411E-01 2.601820018933E-01 -2.141212909381E+00 6.300336643923E-01 -5.542426803704E+00 5.256247914878E+00 -1.538532999224E+00 -9.650079069186E-01 -1.062640532550E-01 3.988606361834E+00 1.315830951534E+00 -4.409573914287E+00 1.075851521880E+00 7.616014664388E-01 4.836756396360E-01 -1.069477878419E+00 1.653548716632E+01
 7.216302169817E-01 -1.039063548779E+00 1.838052262655E-02 -9.322678696200E-01 2.744404401503E-01 -1.081272840252E+00 -1.021292445522E+00 -5.470296169491E-03 -1.047883067272E+00 3.992826940291E-01 -3.250671643530E+00 1.550317480247E+00 -9.557317742393E-01 2.792702325064E+00 -2.936374600785E+00 2.284804045624E-01 -5.546926584671E+00 -4.045267953670E+00 -5.587408563088E-01 2.931632473355E-01 1.386249990376E+00 4.934966076255E-01 -3.115863636671E-01 6.940917536560E-01 -1.206519099011E+00 -7.913195810310E-01 3.019675278139E-01 7.983930775288E-01 -2.181684424027E+00 3.323622271345E+00 -6.412339277538E-01 -3.672432271351E-01 3.063841958837E-01 -3.661933385421E+00 -6.805859962555E+00 2.504549928641E+00 2.524245431010E+00 -5.274736657226E+00 -1.396477475743E+00 2.510102138614E-01 -4.729819719573E-01 -1.354576569496E-01 -9.936474090864E-01 1.405035837663E+00 -6.161890993994E-01 6.744232869167E-01 -1.192233341861E-02 3.945489493643E-05 1.576889684234E-01 1.840778952971E+01
 -1.130387715676E+00 9.407503788451E-01 7.728716216696E-01 1.490060980730E-01 2.696203388521E-01 3.015095608645E-01 -1.020935393504E+00 -5.937666955864E-01 -9.078339042642E-01 4.435954256866E+00 -1.292790006048E+00 -5.288623030400E+00 -4.721292037742E+00 -5.403064826324E-01 -5.561056818011E-01 2.636497815638E-01 -3.698928552992E+00 -5.491409648935E+00 1.424887736070E+00 7.863467769370E-01 -1.661306670342E+00 9.074204984058E-01 7.860518398131E-01 -6.333543397884E-01 -1.226951610811E+00 -1.682184532073E+00 3.573526615654E-01 -1.312556270457E+00 -4.054661971534E-01 -6.305384210911E+00 1.730091935711E+00 7.753561728430E-01 2.015982940435E-02 1.149293809973E+00 2.656992769761E-01 -1.665209297608E+00 7.076778099146E-01 1.858601610413E+00 -6.631710300468E-01 8.176516201826E-01 -1.390187900420E+00 -5.849572318185E-02 -3.525294426848E+00 4.233123861040E+00 3.455370836224E+00 4.098823362331E-01 1.159653625767E+00 -7.901425065054E-01 4.771094394671E-01 4.088846639364E-01 1.850794908744E+01
 -4.903007585485E-01 2.139374969760E-01 1.392618872370E+00 -1.965412905005E+00 1.379201500701E+00 -3.739460843516E-01 -7.152024180516E-01 1.598591124992E-02 1.606504743707E-01 -2.575137501092E+00 -3.287625535044E-01 -4.085843641644E-01 3.533103957842E+00 1.274093325749E+00 -5.023002598660E-01 -7.973897107398E-01 8.092987588466E-01 1.490037346840E+00 -2.537963771043E+00 -2.312980725634E+00 3.164547192407E+00 2.299326635351E-01 3.147491807943E-01 -1.411801536535E+00 2.305032589029E-01 7.733344812888E-01 -9.004115739636E-01 -6.667944118901E+00 2.222557677119E+00 1.914437557611E+00 1.227500908938E+00 -2.379298483261E+00 1.050650023832E-01 -6.816502433622E-01 2.580216680830E-01 8.431482046770E-01 -5.950593627687E+00 -4.160838220725E+00 -3.609762934881E+00 1.383561504580E+00 2.715506466596E-01 4.080142807898E-01 1.790508048129E+00 -8.648119812632E-01 5.781335013632E-02 -1.117909392267E+00 9.104713372464E-01 1.116603433119E+00 7.826824302870E-01 1.600646185273E+00 -1.922815450165E+00 1.556137660390E+01
 -8.518245333540E-02 6.295596442881E-01 1.575833332174E+00 1.798615167275E+00 -7.671533086384E+00 -2.153198705307E+00 -5.231966567594E-01 -7.095344254252E-02 2.300725363714E+00 -1.244109016910E+00 -1.556264854372E-01 1.031620889465E+00 -3.233746672044E-01 -2.370108217347E+00 1.915997449614E+00 1.086681505243E+00 -6.737492420085E-01 -1.980357215476E+00 -3.471022239399E+00 -6.934882610694E+00 -6.112152738261E-01 -9.854005085202E-02 -2.517427762366E+00 -1.001772781840E+00 -1.653588653495E-01 3.477383216060E-01 7.754772705668E-01 7.282433586729E-01 -4.253026798370E-01 8.047341753294E-01 -7.801388943202E-01 1.829691323189E+00 -1.191663604963E-01 4.624484986385E-01 -3.801376951145E-01 1.611163167333E-02 5.130564470484E-01 3.810542146825E-01 2.830776488647E-01 -6.116179854684E-01 6.641239252328E-01 -1.757815705969E+00 2.390705963346E+00 -7.589923055484E-02 -1.189360975959E-01 2.353053466590E-01 -2.797438896468E+00 2.354101911391E+00 8.884160756279E-01 1.164546245387E+00 -2.000211570473E+00 -5.828320348617E-01 2.006331223428E+01
 -1.035433979735E+00 -9.042792436968E-01 1.117720002435E+00 3.206234713645E-01 -2.349903473249E+00 -1.564646070320E+00 3.744570795355E-01 -1.134422584242E+00 1.068476588615E-01 8.851379531230E-01 7.770679328679E-02 -1.196684925358E+00 -3.774796424921E+00 7.455771877507E+00 5.325303297397E+00 -1.106409713127E+00 5.530582015038E-01 -7.006048214161E-01 2.221172030559E+00 3.090932455161E+00 -1.002854799455E+00 1.000239898714E+00 1.296723297000E+00 1.041449963131E+00 1.141624365792E+00 -7.061135645182E-01 -1.374850049314E+00 4.896294851173E+00 -1.966269568511E+00 -2.431827623000E+00 -6.281386939124E-01 -1.094319470932E+00 -3.511173403994E-01 -7.344634923294E-01 -1.443293683343E-01 -6.844706986969E-01 -5.391860097519E+00 -2.777270072927E+00 -4.877469168005E+00 -1.207907903462E-01 1.004508605347E+00 1.827734656275E-01 -6.124953341233E-01 -2.572984333440E+00 -9.562008960370E-01 6.828664220467E-01 1.394527342146E+00 -9.470492304418E+00 9.526090070702E-01 1.017205092712E-01 1.100556850958E+00 -1.232836536075E-01 -1.992003692334E+00 1.591123537426E+01