#BIOSYM hessian 1
@Type: Hessian Update
@Units
 distance: 	A
 energy: 	Kcal/Mol
#header
@natom 19

#label
L1      L2      L3      L4      L5      L6      L7      L8      L9      L10     L11     L12     L13     L14     L15     L16     L17     L18     L19

#element
Li Li Li Li Li Li Li Li Li Li Li Li Li Li Li Li Li Li Li

#matrix
57
 8.265888532865E+00
 1.542312182007E+00 5.295601945916E+00
 5.629641622335E-01 -1.323417450761E+00 4.121829836873E+00
 -2.257948533118E+00 1.493574083222E-01 -8.778259881247E-02 2.043908065054E+01
 -1.077658349724E+00 -2.680828461131E-01 -1.026725117966E-02 7.516457425346E+00 6.369350095962E+00
 2.362989759099E+00 -2.454681553295E+00 2.082096748200E+00 -2.344250747256E+00 2.949860872018E-01 7.843867499849E+00
 1.061879805555E+00 5.738074370213E-01 -3.571613921943E-01 3.248772728616E-01 -1.727134916194E+00 5.456914053229E-01 1.297199426924E+01
 3.895107510156E+00 7.433284989437E-01 5.151973732087E-01 -2.117366327857E+00 -8.049081495447E-01 3.126430007293E+00 -5.858650534070E-01 7.886630341190E+00
 5.537056771513E-01 -4.195043606524E-01 -2.159939127747E+00 6.861508440503E-01 8.868475990826E-01 3.087970119118E-01 4.956536894729E+00 -3.214594982696E+00 1.132243175602E+01
 5.815155348452E+00 -7.468634891457E-01 -3.004101590916E-01 -1.074594644741E+00 4.731358484377E+00 8.239634493055E+00 -4.963419991802E+00 -3.299116921338E-01 6.087315888512E+00 1.017596921764E+02
 2.227808374694E+00 -2.430847055105E+00 1.342250035396E+00 2.269287338932E+00 2.545613846675E+00 3.225429911256E+00 -4.020395066156E+00 5.424550798620E-02 1.054895238602E+00 3.897250991879E+01 3.456705196320E+01
 -5.050089995576E+00 2.700676245640E+00 -1.764796224060E+00 2.973911643043E+00 -1.659868214085E+00 -6.694742889153E+00 1.740095045795E+00 7.357857133341E-01 -4.669036856389E+00 -7.129864467625E+01 -2.070788166518E+01 7.990993430744E+01
 -6.590228167424E-01 4.544072514797E-01 9.399230880366E-01 6.695618657761E-01 -6.170507734448E+00 -4.063335731924E+00 2.565354928143E+00 7.038652824314E-01 -1.055284257910E+00 -3.345239630805E+01 -1.439220340399E+01 2.406149371424E+01 3.244253891498E+01
 3.168994021728E+00 5.685745829626E-01 -1.474302497204E+00 -6.833690929366E+00 -1.616000044814E-01 2.855400195398E+00 -3.588667361862E+00 1.417754589662E+00 3.894671376004E-01 2.953686711792E+01 9.520534240270E+00 -2.636581962254E+01 -2.333705985102E+01 2.954823986161E+01
 -1.271330157276E+00 -2.190742801840E+00 8.663397755431E-01 -2.729898050423E+00 3.133053093617E+00 3.699011196214E+00 -5.642225346352E+00 -1.773722669404E+00 -1.786344059128E+00 3.976084948664E+01 1.568987062307E+01 -3.218945090413E+01 -2.606528686949E+01 2.902559129557E+01 4.370460294790E+01
 -3.183285468708E+00 -3.961652559099E+00 2.228490041770E+00 1.263590706294E+00 2.207320352230E+00 2.878410929115E+00 -3.737059902648E+00 -3.169865785529E+00 2.272707773171E+00 1.090434912960E+01 1.169388961669E+01 -2.396471994114E+00 -9.950044492438E+00 7.894858192349E+00 1.594504073018E+01 2.743034139482E+01
 -3.868886964643E+00 -4.408577028528E+00 4.139160700479E+00 -3.058331736848E+00 2.504245606770E+00 3.385575631598E+00 -3.595067345955E+00 -5.057948406393E+00 1.046180490614E+00 -1.857404056147E+01 -2.831938208197E+00 2.514197229656E+01 -1.223488434199E+01 1.282420765391E+01 2.150434917347E+01 2.633374396187E+01 9.908478856537E+01
 -6.251007121431E+00 -4.717044428184E+00 7.280580012058E+00 -4.850735301809E+00 1.133293255372E+00 7.180934209730E+00 -1.899586976492E+00 -1.401037638052E+00 -2.734688884662E+00 -2.983633251615E+01 -4.345591108200E+00 3.640832379581E+01 -1.974483893319E+01 2.119521149606E+01 3.194176480585E+01 4.352562571416E+01 1.213649559462E+02 1.865778183738E+02
 1.533814089113E-01 -1.212613619186E+00 2.188434060712E-01 -1.511699466169E+00 1.123970066856E-01 1.432632882888E-01 -1.655519564844E+00 -6.460821106280E-01 -4.606089541736E-01 5.162489954281E+00 1.960717306452E+00 -1.735985199379E+00 -1.740603218385E-01 -4.327838068810E-01 1.368606499159E+00 2.064712841637E+00 2.804411013049E+00 -1.283948085535E+00 3.277728537762E+00
 -4.174832036831E-01 8.199352562142E-02 -1.701676345890E-01 1.202560177022E-01 3.718620052897E-01 -6.356877523988E-01 1.923415826392E-01 -8.410096182974E-01 -2.275388297875E-01 -1.353528094768E+00 -2.105138185193E+00 1.110489871463E+00 2.348727976315E-01 -8.372044359732E-01 -1.699250072490E-01 -1.025149587330E+00 3.463067383333E-02 -7.564881608240E-01 5.134225321474E-01 1.105572253414E+00
 8.019327085562E-01 1.554302131024E+00 -2.946394441654E-01 -7.608943452321E-01 -1.027250339273E+00 -1.524887275549E+00 3.734848197362E-01 1.366580334918E+00 -2.504791448651E+00 -5.523571607145E+00 -6.279671039256E-01 3.956079965918E+00 1.060805002871E+00 -4.272515042766E-01 -2.248163043150E+00 -2.667198172645E+00 -3.621255458758E+00 -1.433377321973E+00 -1.113958616507E+00 -2.469682732692E-01 2.428581594412E+00
 -3.382078568109E-01 3.392384519602E-01 1.383806322755E+00 1.042765622942E+00 2.880169019200E-02 -3.292732874259E-01 -2.487834583456E+00 -1.221739159300E+00 -2.279787055252E+00 2.160284011593E+00 1.905122929005E+00 -5.151109036628E+00 1.252420985479E+00 1.410786708094E-01 3.012404039901E+00 1.305780791079E+00 6.588118176206E-01 3.536813620787E-01 -2.015902054064E-01 -9.844383656048E-02 5.951816682697E-02 9.600357313484E+00
 -2.241178473733E-02 1.626728688265E+00 -5.959672075364E-01 7.195054217064E-01 1.015204026542E-01 -1.591819681317E+00 -4.819276174019E-01 -3.488916892994E-01 1.778936060205E-01 -2.948783081485E+00 -3.756353320575E+00 1.419074066425E+00 2.333741338994E+00 -9.438415397686E-01 -8.460570767299E-01 -2.667254308507E+00 -8.591306690817E-01 -2.391969906389E+00 -6.792176615241E-01 3.103092499757E-01 5.772831775740E-03 2.495188999959E+00 2.479268805334E+00
 -4.907619381724E-01 -3.961733691323E-01 -4.631639234774E-02 -3.592570029242E-01 7.440757517095E-01 2.718580354817E-01 -4.269578646715E-01 -4.252354167033E-01 -9.601541565851E-01 4.894465105142E-01 5.751151202701E-01 -1.244232296658E+00 -2.727073262688E+00 1.107961923978E+00 1.664623088252E+00 1.242272008420E+00 2.671757977247E+00 3.031835177149E+00 3.167026433202E-01 1.175412448879E-01 3.952881741786E-01 2.334552401952E+00 -1.238071263179E-01 3.045164613238E+00
 -1.357492716400E+00 -6.112033644256E-02 -7.819653065683E-01 -2.363636953609E+00 -2.216014623168E+00 -1.775317545773E+00 -2.662259678790E+00 -2.888127677396E+00 1.670098604007E-01 9.198940716101E-01 9.162012640502E-01 -1.354219335440E+00 1.181803180825E+00 -7.199522045777E-01 -3.549723992427E+00 -2.144396865075E+00 -1.011727616593E+01 -1.405137914814E+01 -6.487424980014E-01 -7.259081129437E-01 7.091662584648E-01 -5.202509216986E+00 -1.722904633201E+00 -1.994035620381E+00 1.358959894032E+01
 1.625960428340E+00 5.170488862960E-01 -3.683478777278E+00 2.625210289044E+00 -3.012737278974E+00 -5.349878823113E+00 1.174756157820E+00 3.737506127770E+00 -1.306745407297E+00 6.967036955052E+00 -3.671144051627E+00 -1.919221293362E+01 2.099928837332E+01 -1.810976306019E+01 -2.804537911530E+01 -2.993016534851E+01 -9.106018843378E+01 -1.293425735906E+02 6.554350856199E-02 5.973354497954E-02 1.878703059777E+00 -3.979584676474E+00 -1.667090352340E-01 -3.187970742967E+00 1.285314785371E+01 1.041071955903E+02
 4.653849915052E+00 6.013307519620E+00 -5.817927812219E+00 5.167374817922E+00 -3.625326672167E+00 -7.769183216214E+00 2.540828429221E+00 3.023984103388E+00 -4.265189173582E+00 2.337879262580E+01 -4.878254628844E-01 -2.901582808100E+01 2.319755179627E+01 -2.329473323966E+01 -3.265348976925E+01 -4.282618138696E+01 -1.321610741811E+02 -1.823348446847E+02 1.371711556725E-01 1.323744811313E+00 3.599657844081E+00 -2.355223115180E+00 1.925110422004E+00 -5.959418168004E+00 1.739566410768E+01 1.342106842350E+02 1.986501922702E+02
 -6.126195124968E-01 -5.229975272771E-01 -2.378451427966E+00 2.179991211284E+00 2.889537565253E+00 -1.613321860700E+00 -3.225518330973E-01 -3.531206010871E+00 2.481021134637E+00 -1.344376032608E+00 1.503849456031E+00 1.847324978592E+00 -9.653019461942E+00 2.061588641876E+00 -7.399881595546E-01 -4.665094546980E-01 1.469883360674E+00 -1.081860656345E+00 -3.750740873946E-01 6.763860650477E-01 -2.833220318050E-01 -7.638009252902E-01 -2.145512240588E-01 1.307879594161E+00 -3.134235162357E-01 -2.624968345569E+00 -1.279683511847E+00 1.559996690201E+01
 5.783030981725E+00 -1.178988340190E+00 2.609327061592E+00 -5.651805363297E-01 1.894198979002E-01 4.422168743022E+00 -1.313599620134E+00 1.389539403018E+00 -2.038983092240E+00 2.343941265860E+00 4.384530192867E+00 -4.776072910578E+00 -9.991822419210E-01 -6.748203361728E-01 -5.862360362566E-02 4.188728462782E-01 2.303187148004E-02 -6.301257179962E-02 1.074626889898E+00 6.540615088501E-01 3.440742851920E-01 3.091213157768E-01 -1.408241750963E+00 1.242846650123E+00 2.126711636831E-01 -2.995260964752E+00 4.469153684342E-01 1.528312999333E+00 1.708085399663E+01
 2.674417104907E+00 -6.848723880381E-01 3.028501551085E-01 -1.895390731971E+00 -6.798040700379E-01 2.086298114307E+00 5.873378277446E-01 2.698633412617E+00 1.996424991303E+00 7.021837100151E-01 1.005656098165E-01 -7.802061288606E-01 1.501938570594E+00 2.369212661685E-01 -3.643354568624E+00 -8.296704079996E-02 1.143250183570E+00 1.539427455207E-01 2.391171967816E-01 -6.320599907844E-01 -6.671882036444E-01 -1.005425386257E+00 -4.102880997173E-01 -3.241323084992E-01 -8.740770075527E-01 8.657776884773E-01 -3.833505798476E+00 -2.292737388885E+00 1.780077988487E-01 4.179494742674E+00
 2.044195727623E+00 1.898093065741E+00 -1.214191959224E+00 -6.668242145445E-01 -2.385780918322E+00 -1.718550837287E+00 3.166126144682E+00 5.355225479480E-01 5.328055776410E-01 -6.272915645311E+00 -5.604900753812E+00 5.079586465365E+00 6.549733531497E+00 -3.258964741481E+00 -8.063886273152E+00 -1.418418143069E+01 -5.127584768752E+00 -1.253972006558E+01 -1.415948728361E+00 6.053198161208E-01 1.171059026506E+00 1.220864626951E-01 1.870611044809E+00 -7.291378769321E-01 -3.344275848440E-01 6.431179154482E+00 9.731871797034E+00 -4.301844565933E-01 -9.169231396166E-01 7.984538032310E-01 1.221489115583E+01
 2.731857548185E+00 -2.486387472905E-01 -5.840794200431E-01 -6.207742028302E-01 -1.108406193546E+00 1.444756050745E+00 2.436888899163E+00 4.512386592184E-01 2.331130116712E+00 -1.745882712435E-03 -2.719148784249E-01 1.911131337322E+00 3.650599443900E-01 1.316258932011E+00 -3.634282708281E+00 9.716365046166E-01 -3.632590462799E-01 2.557315714420E+00 -3.570683383700E-01 -3.872904804078E-01 1.201783387047E+00 7.028515131104E-02 -1.226372362992E+00 5.225261825779E-01 -1.133128196997E+00 -3.776349054381E-02 -7.416526006143E-01 1.688170927923E+00 -4.043396940431E-01 1.224667187265E+00 1.648461196512E+00 1.451226813711E+01
 -5.948842940679E-01 2.354799404091E+00 -7.822780937010E-01 1.344781056381E+00 -8.888982270592E-01 -2.560344088434E+00 3.006379420874E-01 -1.966877457912E-01 7.508744652105E-02 -5.211898578353E+00 -2.593338186266E+00 4.108594032306E+00 5.995378212333E+00 -5.218629792221E+00 -8.488160915338E+00 -8.911810195467E+00 -5.722031367378E+00 -1.072314589681E+01 -1.655391593659E+00 3.506026827557E-01 9.746514340755E-01 -4.252982022838E-01 9.196480308486E-01 -2.094925029663E-01 2.932595515614E+00 6.190548273078E+00 7.311095405251E+00 -2.054633174866E+00 -5.949684977720E-01 2.762780072521E-01 7.051687571239E+00 -2.580833394307E+00 1.078675379831E+01
 -2.261369037429E+00 -2.216939856665E+00 1.132635332087E+00 -1.049946258877E+00 7.106827771257E-01 -1.563358051862E-01 -5.764739394842E-01 1.772173358387E-01 -8.115287540729E-01 1.043453605143E+00 4.673116014128E-01 -3.547307382909E-01 -6.670811117633E-01 -1.174117059328E+00 1.219690063649E+00 1.464544060537E+00 1.226111186131E+00 1.240387793642E+00 4.090205616802E-01 3.425899239672E-01 -5.466558945608E-01 -5.224278101196E-01 -3.960508056663E-01 7.674164550078E-01 -4.136826769388E-01 2.357586756491E+00 -2.213331918918E+00 -9.210989838705E-01 -1.391148548270E+00 4.492350211297E-01 -7.992541495757E-01 -1.656566168469E+00 7.401214349764E-01 5.867934047640E+00
 -7.770021503052E-01 -6.108565837162E-02 -4.834144420578E-01 -1.949181953567E-01 -7.444187892812E-01 -4.835947913051E-01 7.017730451445E-01 -6.262466289448E-01 1.671081853085E+00 1.117856321159E+00 3.855067697456E+00 1.747607077188E+00 2.485761502925E+00 -1.732528301869E+00 8.730833826403E-02 2.504155049675E+00 -8.251039878362E-01 1.553958594296E+00 -8.321000286252E-01 3.400122481675E-01 -7.292503766723E-01 4.762350811712E+00 1.700608325193E+00 8.209266296526E-01 -3.479117295966E+00 -3.468129944263E+00 -3.048569408431E+00 7.404888691743E-01 -2.778003611441E+00 2.790858322547E-01 -2.699974409553E-01 -7.883865803901E-01 1.244024261741E+00 2.117354208627E+00 1.857408945957E+01
 -1.118588101706E+00 -8.507984444226E-01 6.039400900997E-01 5.649620115579E-01 1.605001837152E+00 9.329285529971E-01 -3.935232143431E-01 -2.145483893192E+00 5.911425308892E-01 2.927616423158E+00 1.144776936325E+00 -5.709041034683E+00 -3.276418190361E+00 1.670792883270E+00 4.596555945914E+00 1.581456698575E+00 3.307695856286E+00 2.782060760878E+00 7.972536097509E-01 3.739696992571E-01 -1.235783464710E+00 1.157416912613E+00 -3.118945431080E-01 -9.829107350943E-01 -9.358237554220E-01 -3.883000708494E+00 -2.107927999350E+00 2.599906466942E+00 -2.845880345882E+00 -1.453647619892E+00 -3.189828098353E+00 6.854536841468E-02 -4.307900364759E+00 -3.200320448918E+00 2.166745500062E+00 1.271544119249E+01
 -1.367775112568E+00 7.826088522603E-01 -3.912186519708E+00 -1.024002829086E+01 1.730217717817E+00 3.746272548875E+00 -1.123793275131E+01 3.935781734262E+00 2.606456168538E-01 2.662137809102E+01 6.822951460296E+00 -2.138886686792E+01 -2.047513152520E+01 2.371408018980E+01 2.490688101568E+01 5.246713260681E+00 -3.017316010586E+00 7.177357053240E+00 -3.495580006922E-01 8.263166830978E-01 -5.837085752897E-01 -2.364998493225E+00 -8.657320950990E-01 8.564608041298E-01 4.551244458122E-01 -4.284837106462E+00 -6.470334884757E+00 3.799432430233E+00 -2.835469358059E-01 -1.392611281872E+00 -5.207547887351E+00 1.038696054473E+00 -2.424155533883E+00 1.028792249403E+00 8.026223703964E-01 1.703287373075E+00 5.227156110710E+01
 -2.300807069380E+00 8.654257992973E-01 2.508924361098E+00 -2.593368180787E+00 -3.696585152057E+00 -2.372998363665E+00 1.013350478889E+01 -3.682922675920E+00 4.111457113187E-01 -2.641536453099E+01 -1.669127917425E+01 1.918324604499E+01 1.719498751413E+01 -2.153800730177E+01 -2.296366868799E+01 -1.147673312829E+01 -1.397709860923E+01 -1.849773776252E+01 -1.949544393935E+00 9.530307635355E-01 1.050696567477E+00 -1.466448555327E-01 1.819881089970E+00 -2.327459689653E+00 3.961394587654E+00 1.411432229425E+01 2.449807769318E+01 -3.236886693724E+00 -3.681401636668E+00 -9.966669786687E-01 6.003664548335E+00 -1.485002876036E+00 4.441170533540E+00 1.580755649906E+00 9.335693735641E-01 1.110982863250E-01 -2.692464762260E+01 3.887348456846E+01
 -2.401514209124E+00 -3.299224015929E-01 -4.078624296634E+00 2.727197230526E+00 -8.023497206495E-01 -6.621111758762E+00 -2.411617999092E+00 -1.289406802358E+00 3.281412760463E+00 -3.008873502561E+01 -5.576419394182E+00 2.226377574105E+01 2.031528224108E+01 -2.437262150294E+01 -3.065758796660E+01 -7.525337832935E+00 -8.675503986024E+00 -2.948683145929E+01 2.208918346380E+00 -4.218227417269E-01 2.267154905685E-01 -1.217512763269E+00 8.486002050979E-01 -4.087463742822E-01 2.045692313088E+00 1.951674012003E+01 1.799391159776E+01 4.908512846985E+00 -1.072949409930E+00 2.131969791603E+00 2.054821356071E+00 -3.472479202587E+00 6.552429256403E+00 -1.050696145658E+00 4.553047721969E-01 -1.779613513558E+00 -1.456002168464E+01 7.429023398384E+00 5.042779830479E+01
 4.253989763312E+00 -9.579678244768E-01 4.174589747505E+00 -3.991074072324E+00 -3.033682162667E+00 1.991264781812E+00 2.133577684098E+00 3.112405233804E+00 -4.327650841704E+00 -7.061873455721E+00 -7.920779219187E+00 -1.052194195180E+00 3.319841723053E+00 1.737411834480E+00 -1.756173003661E+00 -5.604680407340E+00 -5.621496670709E-01 3.647606287063E+00 -2.816020760103E-01 1.694917852041E-02 6.096355412036E-01 2.102109443122E+00 1.165315454094E+00 -1.680127427258E+00 -2.909932077895E+00 2.379906296314E+00 3.650083836805E+00 -2.153941266293E+00 9.926403507447E-01 1.448854030240E+00 3.924324914935E+00 3.249717541276E+00 -4.083241219905E+00 -8.516318866008E-01 -7.207372842072E+00 5.727228860472E-01 -9.623833807685E+00 7.049967682802E+00 -1.258235839481E+01 2.445589041568E+01
 -6.378811390212E+00 -1.961328255112E+00 -8.685291209246E-01 3.754599077855E+00 2.228589081815E+00 -3.487669990524E+00 -2.597749537096E+00 -3.109159818536E+00 -2.895611189564E+00 -6.626045678163E+00 -1.948159460384E+00 7.737399802506E-01 1.321423566691E+00 -5.678408698249E+00 3.368995897461E-01 -1.419105091554E+00 -2.760036137887E-01 -5.513470922890E+00 8.151710388792E-01 8.615778984506E-01 7.017852898523E-01 -4.927328950814E+00 -1.937441856602E+00 1.391049193442E+00 7.789152574142E+00 6.668454610374E+00 4.256252278716E+00 -1.094513486049E+00 1.307722285707E+00 -3.150026485151E+00 -2.597184314534E+00 -7.556242645398E+00 4.717610329974E+00 3.153132960833E+00 -9.209364704694E-01 -3.782010785020E-01 5.990428966321E-01 -6.478170410088E-01 9.217146378259E+00 -1.363183140068E+01 2.680363970496E+01
 2.889645000177E+00 2.040073436371E+00 2.043070355894E+00 -3.892798322381E+00 -3.419300927902E+00 -1.089593425386E+00 5.046369162181E+00 4.421993088731E+00 -4.804520172530E+00 -4.753401971557E+00 -4.336564484321E+00 -2.104808793734E+00 2.618643076156E+00 -2.670381365779E+00 -5.068809092647E+00 -9.721133084862E+00 -9.070921149702E+00 -3.164047772222E+00 -2.135625333182E+00 2.716235682206E-01 3.709769422240E+00 -4.990915627196E-01 -9.939864388122E-02 2.889376072207E-01 -3.178813672682E+00 4.940746566525E+00 8.069781556802E+00 9.246441777772E-01 1.932601980412E+00 -5.361716988793E-01 6.924899728229E+00 3.192085299916E+00 5.316656906206E+00 2.184415513020E+00 -3.359316128536E+00 -3.408002571543E+00 -2.283904693226E+00 6.786870764299E+00 -1.224763447811E+00 9.098867552117E+00 -2.834506782539E+00 3.259617228032E+01
 -1.072593977516E-02 3.165011981722E+00 -2.080648438633E+00 7.321485869046E-01 1.709100332161E-01 -2.330945526526E-01 2.881071610796E+00 -1.111960739181E+00 -7.879377770575E-01 1.272584366905E+00 -5.419408375542E-01 -1.056741537999E+00 -2.834392810032E+00 -5.553535852632E-01 2.216528220971E+00 -2.585461505849E-01 -1.660578786535E+00 -2.365815922867E+00 -8.988282219063E-01 5.443938042181E-01 2.043970547007E+00 -7.855004097901E-01 -3.904837361783E-01 2.180573644919E+00 -2.273990655013E-01 -4.255934357159E+00 6.909000199707E-01 5.978292021559E-01 4.831410950415E+00 -3.315643605802E+00 -1.940155332458E-01 -1.671466966746E+00 1.788545150115E+00 -1.242309082946E+00 -8.928853739726E-01 -1.600373237788E+00 1.235173611738E+00 1.242965560486E+00 1.141950355629E+00 -1.143105353918E+01 9.221824357767E+00 3.610053642274E+00 2.388225345489E+01
 -1.280291137031E+00 -1.534095028346E-01 -5.125855131666E-02 3.243608848902E-01 6.030545913285E-01 -1.510996328595E+00 -1.820300047357E+00 -2.583477427072E+00 -7.277192723946E-02 -7.611815390819E-01 -3.163510834940E+00 2.370693508622E+00 -1.313780340445E+00 1.054990878741E-01 4.308003965183E-01 1.430248961849E-01 1.817487748484E+00 2.516335911320E+00 7.266058814268E-01 1.134348321601E+00 -3.803274078756E-01 -8.433674147236E-01 7.285461891484E-01 -1.032833479729E+00 2.215224407818E+00 -2.722518620016E+00 7.710464896750E-01 6.422397935704E-01 1.998915808219E+00 -1.091254092507E+00 1.979807096818E+00 1.366112799129E+00 9.604347493515E-01 7.062471788555E-01 -8.428748884750E+00 -6.104453477017E+00 1.273688839994E+00 2.131149878406E+00 -1.087687786132E+00 4.794223746541E+00 -2.125510933547E+00 4.287115606300E-01 -3.941661602748E+00 1.527668891824E+01
 2.780551109369E-01 -1.713171735158E+00 3.903481784149E-01 7.210605205525E-01 1.350316474856E+00 -1.632868556755E+00 -3.225552601106E+00 7.266806921613E-01 7.500016576870E-01 -2.093980529252E+00 -4.583196651792E-01 3.527634661728E+00 4.914568740250E-01 -5.005094486583E-01 -9.737846507361E-01 1.057181382591E+00 -4.084534077273E-02 1.416201636911E-01 4.100823868048E-01 -2.537826783499E-01 4.406389841417E-02 -1.778966624366E+00 4.883884118045E-01 -1.877841847438E+00 5.858154194790E-01 2.925910501122E+00 4.020349082809E-01 6.208645326264E-01 -1.985091085440E+00 9.814434035168E-01 3.085432228535E-01 1.881659854460E+00 -2.797050546481E+00 2.026969386866E+00 -5.606815756546E+00 -2.761420524734E+00 2.396670432727E-02 8.727961221481E-02 7.654286549741E-01 6.590181238756E+00 -3.094705119427E+00 -9.409907556775E-01 -5.498778827581E+00 6.648868237111E+00 1.287423414447E+01
 -8.567312812990E+00 4.600579308441E-01 1.606124783260E+00 -1.739701611625E+00 -3.120817489329E+00 -2.847640650651E+00 3.491201540827E+00 1.223374416152E+00 -5.309172376223E+00 -9.254196150253E+01 -3.729035854369E+01 7.560329913921E+01 3.099067788382E+01 -3.087973803488E+01 -3.509467783318E+01 -6.496918902566E+00 3.509923082992E+01 4.662745018050E+01 -3.775349514390E+00 4.581962369936E-01 2.171805306708E+00 -1.714926983580E+00 3.647343823933E+00 -1.301026815064E-01 -2.168201924685E+00 -2.295956663042E+01 -4.212764196582E+01 -2.551113386718E+00 -3.561993639632E+00 5.528595902149E-01 3.267205700806E+00 -5.771644467429E+00 4.656480673095E+00 6.257517179041E-01 7.426764442440E-01 -3.768191514214E+00 -2.751531316625E+01 2.800904217871E+01 2.824620014816E+01 4.379215200774E+00 6.154711051941E+00 -2.359656592319E+00 -6.300204839909E+00 1.227071910390E+00 -1.967218021480E+00 1.099788703429E+02
 -3.276213666809E+00 -1.908271272798E+00 -4.767915257848E-01 2.227270709160E+00 -1.241600976991E+00 -1.483668043662E+00 1.830918118262E+00 5.351410963946E-01 -1.965069746885E+00 -3.478280127246E+01 -1.271986564358E+01 2.642173903357E+01 9.093914968597E+00 -9.591563423196E+00 -1.236336864044E+01 4.538161633665E-01 4.198770299552E+00 1.637864140049E+01 -1.544502260834E+00 5.390777779190E-01 8.580845303362E-01 -2.023734600031E+00 3.540466236239E-01 7.922402501514E-01 -8.363297218705E-01 -4.614517276724E+00 -1.243526593801E+01 2.446250765285E+00 5.555735185594E-01 -4.017928462306E-01 -5.607958985667E-01 -5.667623742400E+00 -9.677968732147E-01 -6.776915307001E-01 7.205370737412E-01 -1.571730118812E+00 -7.975684008645E+00 5.345847359442E+00 7.922045773832E+00 2.045975732560E+00 3.401888466820E+00 -4.152909293971E+00 -2.387924662130E-01 -1.902614438009E+00 1.629688352768E+00 3.139581314537E+01 2.738951729939E+01
 5.283783782220E+00 8.875916543227E-01 -1.794341191925E+00 1.752183967587E+00 3.558982473635E+00 3.478135402268E+00 -3.087668030668E+00 -3.256098994448E+00 7.112686502160E+00 7.553174608880E+01 2.905767409679E+01 -5.625388276195E+01 -2.429622371998E+01 2.532498445024E+01 3.280454925990E+01 8.427411434331E+00 -2.001441927166E+01 -3.196336099267E+01 4.004833415701E+00 -1.102207533731E+00 -4.271087324545E+00 2.670901121463E+00 -1.366158581296E+00 1.896700791735E+00 2.709442406096E+00 1.156998722752E+01 2.587715769506E+01 6.714353311928E-01 4.166392756642E+00 -1.054324637503E+00 -6.619205305096E+00 -3.052275616612E+00 -6.450977258098E+00 -3.314909198413E+00 1.264223458096E+00 2.999183591546E+00 1.891149357175E+01 -2.515832810980E+01 -2.560582157015E+01 -5.804498690555E+00 -4.395842797803E+00 -1.404453609510E+01 -1.465521578989E+00 -3.745940316288E+00 -4.484225379746E+00 -7.047788996602E+01 -1.854148444996E+01 7.843847432080E+01
 -1.355466462808E+00 3.505570009069E-01 -1.275151579034E+00 -2.749258626965E+00 -1.611101992574E+00 -1.832858331530E+00 -4.982148966966E-01 1.273461535660E+00 -1.849292208777E+00 -3.932387894694E+00 -5.752292041192E+00 1.253811926809E-01 1.203194262575E+00 7.258243260604E-01 -1.968198290913E+00 -2.803266172177E+00 -3.260805185369E+00 -5.581139684805E+00 1.003454090851E+00 9.199774185951E-02 2.251679529737E-01 -2.505196580392E+00 -1.206798623630E-01 -2.238258285688E-01 2.344907143385E+00 5.057889900667E+00 4.807765377365E+00 -2.018410168077E+00 -5.669488915816E+00 1.696817653797E+00 1.246332814730E+00 -1.223586489540E+00 2.131918094264E+00 -8.560975570776E-02 -4.971449820402E-01 1.451862529893E-02 -1.732744028294E+00 1.724225059744E+00 4.969073289560E+00 3.070957591165E-01 5.036320110393E+00 3.837100958397E+00 -1.959065520157E+00 4.056845841221E-01 -3.517026011583E-02 3.267986343889E+00 8.239372713828E-01 -3.233865100583E+00 1.852124144606E+01
 -3.275301706328E+00 1.747454746489E-01 -1.859066066192E+00 -1.873373938792E+00 -2.661325347576E+00 -1.535120805200E+00 3.926983875165E+00 -3.534049023839E-01 1.766246407090E+00 -3.677140034899E+00 -7.924750861596E+00 -4.475419742347E+00 4.712879955522E+00 -2.146203797833E+00 -1.960257509378E+00 -2.483675232842E+00 -3.232313496596E+00 -1.901043121626E+00 -4.406892615354E-01 -7.029024420281E-01 3.245885355718E-02 1.862340857230E-01 1.032639535996E+00 -8.709299371042E-01 -2.557724317514E-01 3.328190682419E+00 3.681568847268E+00 -3.571704542769E+00 -8.280915722200E+00 -2.045036490475E-01 2.466281314287E-01 5.626475544315E-01 -7.442829747988E-01 -1.253944751774E+00 -9.182667500982E-01 2.615456290222E+00 -2.061416641016E+00 4.295676022155E+00 6.285855615978E+00 5.334054438575E-02 1.971443123891E+00 1.079164176548E+00 -5.388424937591E-01 -2.159407543206E-01 -8.015343799650E-01 5.088880420873E+00 4.399863826029E-01 -5.783993367863E+00 3.782389192048E+00 1.539689504025E+01
 1.442661009757E-01 1.476523605804E+00 1.186888974963E+00 -1.436421997081E+00 -7.211159008647E-01 -2.416859452025E-01 6.605748804888E-01 -2.044794673799E+00 2.661765264776E-01 -2.784345182381E+00 -1.343517337299E+01 -1.158809520039E+01 1.729234561789E+00 3.190887856894E+00 3.228628108113E-01 -3.065043664277E+00 -1.371137807213E+00 -5.806604876071E+00 -1.609089184205E+00 9.030222399085E-01 -1.437006378171E+00 3.970010112773E+00 3.011932902440E+00 6.503980509219E-01 2.898609342618E-01 5.716178714882E+00 4.450938910860E+00 -3.650107690238E+00 -7.024818192256E-01 8.904265864206E-01 7.023558886097E-01 -2.446293232606E+00 1.210899536093E+00 1.638533066316E+00 -2.317180946302E-02 -5.989379787861E-01 -4.286847896311E+00 6.517614706859E+00 -9.146358635602E+00 7.415994843731E+00 -1.565322475031E+00 -1.358825112361E+00 1.984473843527E+00 2.610894725455E-02 -1.444353454003E+00 1.338182410825E+00 -1.681644615006E+00 -1.063518990054E+00 -9.817448076899E-02 4.482931587650E-01 2.483916221628E+01
 5.498582103742E-01 7.079426669477E-01 -5.402813666673E-01 1.488114372341E+00 1.740295558952E+00 2.900303586939E-02 -2.328438256477E-01 2.157046396920E-01 5.977110334939E-01 -6.150012186697E-01 4.741103155721E-01 1.370697152477E+00 -1.554288817110E+00 -1.696741633860E+00 -4.100680924930E+00 -1.120033952562E+00 -2.035509296595E+00 -7.216974942651E-01 -2.646700668655E-01 -2.148270088975E-01 6.213451752866E-01 -1.319499088499E+00 -5.144291187800E-01 -7.584433951535E-01 2.481826141059E+00 2.441277962929E-01 2.136423566422E+00 -9.165349203975E-01 -1.611237734969E-01 2.567847996089E-01 -1.626835024824E+00 -1.529169945387E-01 -9.394278449707E-01 -1.905751018830E+00 -3.105190489246E+00 2.772314374673E+00 -4.938904465550E-01 1.979897074014E+00 1.707993021335E+00 -1.117872800559E+00 7.324695536968E-01 -8.456084544825E+00 -1.320526775999E+00 9.647972298045E-01 1.550399893755E+00 8.921219551236E-01 1.795821347315E+00 -1.752205308018E+00 -7.300040558189E+00 3.350744539805E+00 -1.302428623017E+00 1.427814916405E+01
 1.711817119426E-01 1.472165561842E+00 5.468762876872E-01 -7.891538851819E-01 1.368358092274E-01 -7.160596515422E-01 5.532522454419E-02 -8.729924936685E-01 2.038066170804E-02 7.381382215359E-01 -2.953827683023E+00 -3.346224829576E+00 -1.014074998016E+00 1.638262279936E+00 1.731467422667E+00 -1.202836336733E+00 5.266228756775E-01 4.962427736611E-01 -7.072390115582E-03 6.830710159249E-03 2.085340203901E-01 -1.787209960368E+00 -5.087355776592E-01 -2.688181122319E-01 1.806991919874E+00 3.852692921155E-02 1.497962621374E-01 6.139467782495E-01 -5.915591942886E-01 -8.391324764419E-01 -2.236094605543E-01 -1.923031661417E-01 4.536770890080E-01 -2.489497592789E+00 -6.082266919513E+00 4.386400348394E+00 5.555849633690E-01 2.553344375263E-01 -2.480391044361E+00 3.724580219466E+00 7.485350123247E-01 8.088497918598E+00 4.743295015237E-01 -1.664020975639E+00 -1.335045797788E+00 -1.550346090913E+00 -1.684895431630E+00 3.624288028196E+00 4.497246261697E+00 -3.677450129029E-01 1.299404749586E+00 -3.866231008152E+00 1.169716811060E+01
 -2.419531403137E+00 -2.102088745195E+00 -1.641596356692E+00 2.839905409688E+00 3.284985010454E-01 8.195712235475E-01 -1.181393424810E+00 -4.774174146841E-01 -1.108310091711E+00 -4.677228947278E+00 6.627360462482E-01 3.091743200302E+00 5.820326122522E-01 -1.453269029108E+00 -2.906807477741E+00 -8.198874162596E-01 -2.192431949795E+00 -7.069720559679E+00 1.231909634781E-01 -6.990312324024E-02 -5.596047918074E-01 2.039898889904E-03 -5.706270530699E-01 -9.509417820532E-02 2.225273903328E+00 5.443091560257E+00 6.145464603486E+00 4.105062769167E-02 -7.554172141736E-01 2.587693643917E-01 -4.349285878042E-01 -8.383785287733E-01 -3.960696783392E-04 2.877057672519E-01 3.412784184926E+00 -1.173513304125E+00 -8.534579701937E-01 -8.786599775820E-01 6.156389254699E+00 -6.967758649092E+00 5.420834523684E+00 -1.470930062288E+01 6.870907740286E-01 8.357895236753E-01 -1.383346644058E+00 4.586325347248E+00 2.760308074897E+00 -4.876041263478E+00 -2.056486784715E-01 2.154425565594E+00 -4.828526329803E-01 5.365077270093E+00 -1.083988717501E+01 1.773728884631E+01