#BIOSYM hessian 1
@Type: Hessian Update
@Units
 distance: 	A
 energy: 	Kcal/Mol
#header
@natom 19

#label
L1      L2      L3      L4      L5      L6      L7      L8      L9      L10     L11     L12     L13     L14     L15     L16     L17     L18     L19

#element
Li Li Li Li Li Li Li Li Li Li Li Li Li Li Li Li Li Li Li

#matrix
57
 2.018861664579E+03
 -3.205502638976E+02 5.072030884051E+03
 -3.630496958714E+02 3.202257851243E+02 6.023894603388E+03
 1.949011362143E+01 -9.458487244411E-01 -1.963424804355E+02 4.571505210664E+02
 -2.888217703382E+01 1.475301866267E+01 1.403663483707E+02 -4.845685336354E+01 1.359719054179E+03
 7.736416731748E+01 -5.866927760567E+01 -4.176563534258E+02 -3.166291991007E+02 -1.317644282597E+02 8.046687294064E+03
 2.874673385031E+00 -8.172073990967E-01 -7.210957471038E-01 1.634516367874E+00 -1.974259663100E-01 -1.168801092836E+01 2.112313047263E+01
 -2.307675483352E+00 -1.364323831055E+00 1.435323842677E+00 -1.589646466107E+00 -1.361312074862E-01 1.678703616889E+00 1.253199686174E-01 7.378402904365E+00
 1.340608718805E+00 2.769499896127E+00 -1.698780760874E+01 4.418648853438E+00 -1.608168423132E+00 2.524447738052E+00 2.513021700968E+01 -2.304192453091E-01 6.150787342207E+01
 -3.374913449811E+00 6.789570900839E+00 -2.682093485368E+01 4.989022085627E+00 -4.761257772041E-01 9.371109021677E+00 -1.688905655264E-01 -1.519096960742E-01 3.058388404513E-01 1.215728236399E+01
 3.181387169063E+00 9.434159476570E-01 -5.380797625768E+00 -3.172513858528E-01 -7.644311390545E-01 -2.896691308662E+00 2.769801556694E-01 -5.269142410556E-02 4.111133282001E-01 1.231627743271E-01 2.424880067141E+00
 -3.121465385785E-01 -7.294299797197E-01 6.502480089158E+00 -1.655261355697E+00 9.046463646441E-01 -5.096822617790E+00 -2.274386358877E-01 -1.033179435261E-01 -1.417154612431E-01 1.363880644002E+01 -1.028923643604E+00 2.954664978359E+01
 -5.741634689048E+01 5.931912346469E+01 7.722036560267E+02 -2.643214080058E+01 1.566103056468E+01 1.094688609879E+01 -1.750689325986E+00 3.617054778347E+00 6.752845437351E-01 2.094400579396E+00 -4.162520592458E-01 1.120176370104E+00 6.388167192385E+02
 1.153702987191E+01 8.091995978226E+01 1.634610208818E+01 -1.082913987546E+01 -2.766525886401E+01 3.376588544189E+01 -4.206114387196E-01 -1.600146395437E+00 -1.616257724968E+00 3.282651522598E+00 -6.034469402121E-01 9.496538590442E-01 9.758569199529E+00 1.243723809295E+03
 4.153949710356E+02 -3.327448947943E+02 -6.033546476884E+03 2.678297214947E+02 -1.335227906007E+01 2.173108704842E+02 2.227744135921E+00 5.235545946602E+00 2.651782852486E+01 2.004966823564E+01 7.915377020641E+00 -1.048852024907E+01 -7.455365818990E+02 -1.288310842038E+03 1.224813203515E+04
 -9.200772127470E+01 3.109034718581E+01 5.975471024240E+02 -5.157679445381E+01 2.932889971429E+01 -4.701217305692E+02 1.383705562045E+00 4.263127728007E-01 -3.333504879273E+00 -4.681600387960E+00 -6.834802369019E-01 2.383114858626E+00 6.821736000140E+01 -1.933034029327E+01 -5.332549583892E+02 1.214343412824E+03
 5.028486255824E+00 -4.126590120298E+00 -3.097426603922E+01 3.173334280872E+01 -7.225209712897E+00 4.453982301302E+02 -2.780905782673E+00 1.760673156702E+00 -1.915554348816E+00 -5.528469268485E+00 -1.574816833589E+00 -3.219710195800E-01 -4.936154545567E+00 -9.942222026686E-01 4.094926962846E+01 -8.007052631247E+01 3.148272016577E+03
 -2.139091313705E+02 7.709214634104E+01 1.188710337652E+03 -2.380173586812E+02 3.100009906820E+02 -3.221911661057E+03 -1.022815104680E+00 4.948390445469E+00 -1.484635616069E+01 -1.599014380501E+01 -4.542519966914E+00 9.333622104043E+00 1.144086983404E+02 -9.310185887885E+01 -9.227814867816E+02 4.932349732890E+02 -8.289124846706E+01 3.436010510038E+03
 -4.363732453870E+00 3.317792923021E+00 -1.526323504668E-01 -3.093821007477E+00 -4.420976290171E+01 9.501432692659E+01 -3.437738900038E+00 3.645800336396E+00 2.468631193078E-01 1.619574271953E+00 4.531675730198E-02 -6.488327816510E-01 -1.669328232935E+01 -2.872625050904E+01 -7.165566184103E+00 -1.275187563096E+01 4.288750594074E+01 -9.749746118135E+01 1.720948877395E+02
 -3.531530321622E+00 1.106164322207E+01 2.615728384793E+01 -1.020657030329E+01 -1.162356503814E+01 -7.857176498488E-01 5.805304732876E+00 -2.856126636005E+00 1.503037590519E-01 -4.737434696683E-01 -1.724308930263E-01 -8.203393603785E-02 -1.960874637995E+01 -2.871778433613E+01 -2.218602949865E+01 -5.309730421095E+00 -1.364117869711E+01 -2.428493575170E+01 1.137642597657E+02 2.140293099012E+02
 -2.293241312685E+00 -1.875407930345E+01 -2.848308654175E+01 1.560282733774E+01 1.492113642255E+01 1.050341408607E+00 9.171034231784E-01 -6.081952010253E-01 5.017550072835E-01 3.901524934305E-01 -3.528043372182E-02 -6.639630358367E-02 -2.251936582337E+01 -2.794116352249E+01 -1.465516086629E+01 -3.304178337219E+00 1.762483903829E+01 -2.748675700995E+01 2.547306067610E+01 2.076850676200E+01 7.456263222274E+01
 4.481518567566E+00 -8.859472480935E+00 9.870973474544E+00 -5.802119471108E+00 6.098233950291E+00 1.389040856068E+01 -6.895088940070E-02 2.188880230516E-02 -8.095367189319E-01 -4.379724514306E-01 3.309656831667E-01 3.324103151844E-01 -4.160766731060E+00 -1.666758879255E+01 -4.633093354993E+00 6.452263403767E+00 -4.237253178384E+00 1.908167275362E+01 -8.013057793609E-01 2.510868171117E+00 -5.720255118978E-01 9.414433501070E+01
 6.308065776878E+00 -7.313956791912E-01 -3.638765964551E+01 -3.667840542656E+00 -3.229760381378E-01 -1.666518847636E+01 -6.167340862042E-02 1.680645510638E-01 -1.318970636651E+00 1.855020419804E+00 -1.079000716365E+00 -3.925897757639E-01 -2.288133964478E+01 -2.305512422849E+01 3.712814395132E+01 -5.261437256461E+00 -1.526292854129E+01 8.405115041450E+00 4.561698030307E-01 2.335555884127E+00 1.502857393299E-01 5.920220157208E+01 9.016495103625E+01
 2.125263282612E+01 5.160219493142E+01 -6.461052547647E+01 4.339268195360E+00 -9.431078507673E+00 -5.036512275216E+00 5.047500384669E-01 -4.671636744695E-03 8.188493893175E-01 7.631312610940E-01 -1.184027364679E-02 -3.969798777758E-01 -3.602474489476E+00 7.318529461580E-01 6.491685311281E+01 -1.048881134545E+01 -5.763080169511E+00 -2.259446652986E+01 2.103476415868E+00 2.088789627363E+00 3.707035356428E-01 5.212691708057E+00 6.116549414084E+00 4.657621703892E+01
 1.214896435455E+01 1.138242794263E+01 -2.708450670639E+01 5.988529250761E+00 1.809481348420E+01 8.163317064213E+01 -2.790376900193E+00 -4.220393986310E+00 1.278487456298E+00 2.840871144522E+00 4.077712707026E-01 -2.994868439693E-02 1.748827450956E+00 -2.533937992874E+00 6.365482648472E+01 -6.151604895513E+00 -5.214832229766E+01 -1.024071144403E+02 4.484363556970E+00 1.914637758776E-01 1.430610931510E+00 -3.938755352771E+01 -3.819242143243E-01 -7.349319280247E+00 1.274734381666E+02
 -4.063730060624E-02 -3.165638168679E+00 -4.955929159269E+01 1.189632697866E+01 -6.487853553808E+00 1.364434253383E+01 -4.217760445916E+00 -3.962585950886E+00 1.559239944282E+00 -1.946539220151E-01 3.698337656618E-01 -3.909562488903E-02 1.328852667933E+00 -1.330693672901E+01 7.201142715321E+01 -8.492204760289E+00 -1.053977981024E+01 -1.957179338387E+01 7.602387716613E-01 4.802591600658E-01 8.637662030926E-02 2.066057010506E-01 4.626202327992E+00 1.182591778224E+00 -5.401687488550E+01 8.929570879816E+01
 -6.419701747549E+00 3.659601054797E+01 -4.573587497961E+01 2.961420612799E+00 -6.903855282190E+00 4.129480976042E+00 1.728517096181E-01 4.789422613896E-01 -7.008827472032E-01 -4.237406113565E-01 -5.925973527510E-01 5.837510498002E-01 -7.254420499568E+00 9.140250364549E+00 9.617064572681E+00 9.199583900401E+00 -2.492919896175E+01 -7.582543090172E+00 -2.779881283596E+00 -2.575308895442E+00 -9.335131483753E-01 -7.302678372515E+00 1.270372020920E+00 -3.279104950333E+00 -3.627352122092E+01 2.190672126061E+00 7.761551001784E+01
 6.288902061347E-01 -2.830191628810E+01 -1.959765779546E+01 -8.481431190656E+00 2.581788680217E+00 -1.868401213258E+00 -1.120694083438E+00 6.706441678113E-01 -1.520585579854E+00 -4.788364865952E+00 -1.708201732043E+00 -4.832537042033E-01 -1.434007048162E+01 1.805072290811E+01 3.591566683383E+01 2.168661252593E+00 1.206465398972E+01 3.772420150203E+01 -8.128051364046E+01 1.167263911436E+01 -1.347698965586E+01 8.674918032132E-01 1.542012163128E-01 -8.250041800588E-01 -8.584469336646E+00 2.404664912564E-01 3.509716352040E+00 1.149266191155E+02
 -2.618042155101E+00 -3.355900580496E+01 3.840223159198E+01 -3.942779620867E+00 -3.127934072013E+00 1.343772747548E+01 -2.661455032458E-01 2.891452583812E-01 -3.184817576858E-02 -1.460365223435E+00 -1.807004510978E+00 7.711179829760E-01 1.099436747270E+01 -7.708499922572E+00 -3.922146664787E+01 8.120129725441E+00 -9.669705246053E+00 1.048259145663E+01 8.024457663647E+00 5.319563792046E+00 1.065597122946E+00 1.131163430660E+00 -2.504908272591E-01 -9.246081639309E-01 -2.875346837274E+00 1.256741573270E+00 4.364832382408E-01 -1.868330741507E+01 2.448318477029E+01
 1.901800765526E+01 -4.395057341808E+01 -5.380970842922E+01 6.215546740650E+00 5.785796033282E+00 -2.527527746630E+01 7.425436638751E-01 -3.345350365693E-01 1.083508223225E+00 8.759745779559E-01 4.938394316563E-01 -2.980205632652E-01 -9.449125551489E-01 -2.518696056872E+00 4.366200377411E+01 -1.141489832230E+01 -2.475019211426E+00 -2.033344371741E+01 -1.225116820171E+01 1.886542292845E+00 -1.242618725528E+00 -6.823013342548E-01 1.762471720010E-02 1.025070196384E+00 2.944775018794E+00 -3.279094379318E-02 -1.803742093668E+00 -1.119701333204E+01 4.639693471400E+00 4.337140549749E+01
 7.182098163019E+01 -3.871539583868E+01 -2.825762003748E+02 -3.333605902534E+02 3.920832877261E+01 4.561396463358E+01 -7.376159500342E+00 2.143941548148E+00 -5.580812023926E+00 -3.294896746847E+00 -1.814304761855E+00 -9.658462731672E+00 -3.131415479007E+01 3.069544325134E+01 1.745054144196E+02 -5.776629402434E+02 6.540510788346E+01 1.024155858040E+02 -1.411214869640E+01 -5.097277842629E+00 -2.412600716032E+00 4.637326894531E+00 2.801658223470E+00 -2.922204515845E+00 -2.328558353038E+01 -3.116479611368E+00 9.783731441080E+00 1.388235007578E+01 1.094269619081E+01 -5.653590428184E+00 1.141873408594E+03
 7.089434559295E+00 -1.345995538331E+00 -2.755172807037E+01 1.795826494684E+00 1.542470372838E+01 4.273392284321E+01 6.909940552933E-01 -1.442971281599E-01 2.676021607319E-01 8.558730182519E-01 -1.956016995777E-01 1.205612271498E+00 -1.035977095155E+00 1.423994811478E+00 2.606442231588E+01 6.673712969529E+01 -1.472792522064E+00 4.477185689606E+00 -1.176966635595E+00 -5.478408096441E+00 -2.162657043717E-01 1.274506791039E+00 5.376363786185E-01 1.017742211117E+00 1.215401757855E+00 -1.579978242734E+00 1.614548065610E+00 -1.418755915727E+00 3.976061346862E+00 -1.807847020554E+00 3.913446455251E+01 1.517961482706E+02
 1.019872536827E+01 -4.377595379191E+00 -1.199248567067E+02 1.487213798256E+02 -3.351401871826E+00 -8.704879678629E+01 -1.807320116056E+00 2.942926695374E-01 4.204754980514E-01 -1.140740812542E+01 9.539931449219E-03 -2.766648671928E+01 -1.589027873886E+01 3.691729615323E+00 9.629758804735E+01 -2.115345446861E+02 1.911676098456E+01 -1.897456903907E+01 -1.061076658215E+00 2.950269213482E+00 1.435056864619E+00 -1.260991064575E+00 -3.080954940524E-01 2.210888287556E+00 -2.734651191930E+00 7.587584035932E-01 -3.179863866163E-01 2.264540164659E+00 -5.079168095504E-01 1.674475006204E+00 8.627764398404E+01 -3.746867998763E+00 1.607624352670E+02
 -1.070896863181E+01 1.278261662828E+01 -3.384179159943E+01 -3.669330218929E+01 -9.796978472081E-01 -2.842256167670E+01 5.339099946220E+00 -8.307570674965E-01 4.029467148722E+00 -4.506743369171E+00 2.262417926144E+00 -3.142863555593E+00 -7.417266688126E+00 -1.371294175648E+01 7.745209307587E+01 -4.869495050994E+02 2.406776322761E+01 -6.936747732992E-01 7.301760309253E+00 5.508685446105E-01 -3.720806535098E-01 -5.804754678065E+00 4.193454945597E-01 5.431733873958E+00 1.650615826815E+00 2.836421551305E+00 -1.239928240874E+01 -4.206517894606E+00 -5.769978000167E+00 6.264497405916E+00 -1.553750543961E+01 3.333999988354E+00 7.943254772874E+00 5.770920403064E+02
 -2.748413545635E+00 -1.342957388639E+00 -4.573591175310E+00 8.723468950070E+00 1.307251309255E+00 1.563498359309E+01 -5.435391025170E-02 -1.548759590620E-02 5.764836228289E-01 1.379388897547E-01 -3.507707689807E-02 -2.372236160615E-01 -1.278749486151E+00 -4.389496731827E+00 2.063267877370E+01 2.729244456306E+01 8.379137348056E+00 -1.034556448543E+01 9.303936354348E-01 1.136356524842E+00 1.235605241036E-01 -4.799677794736E-01 -8.196979490769E-01 2.852890822930E-01 -2.032186681943E-01 1.463398211804E-01 -1.532329327500E-01 3.744584269856E-01 -4.255802207867E-01 1.264389252178E-01 -1.364871670943E+00 -2.712145004032E+00 9.346603623270E-01 -1.445093554272E+01 2.636331122610E+01
 1.253016011603E+00 4.320377236223E+00 -1.214405040928E+01 -1.822150455191E+01 -3.514969325199E+00 4.165206323177E-02 7.268495839047E-01 2.944084932894E-01 5.076610042203E-01 1.021607533009E+00 1.927436318005E-01 1.578596875046E-01 2.585663914255E+00 -3.663418674523E+00 3.076399849676E+01 1.130582203344E+02 -1.662593978254E+01 -3.617914429606E+01 2.627504950817E+00 2.505386817785E+00 1.007977195173E+00 -6.390159037211E-02 -2.778785763196E-01 7.503060591689E-01 3.049918683408E+00 -2.110449294529E+00 -1.499904773229E+00 -1.894017274598E+00 -1.856874110811E-01 6.021718180792E-01 -2.116502045025E+01 2.483843627103E+00 -3.250371826507E+00 -6.669448880862E+01 7.063765351418E+00 3.870153285777E+01
 -1.197881261387E+03 -5.365654924118E+01 -4.354631076651E+02 -3.538399805923E+01 5.132739855731E+01 -1.283660913465E+02 -1.006820416443E+01 2.469564429417E+00 -5.085643265058E+00 5.948846254950E+00 -7.064977935583E+00 3.741725952877E+00 -4.143902113547E+02 2.340837742391E+01 8.169129034408E+01 1.274228211684E+02 5.628456168054E+00 3.629237944394E+02 -4.978205662749E+00 -4.623335776950E+00 1.698956023803E+00 3.988793464357E+00 1.516001833100E+00 -1.552167066957E+01 -2.445257447725E+01 -1.301596657087E+00 1.671761283955E+01 1.694152834469E+01 1.376995887902E+01 -1.156173698130E+01 -5.864704728971E+01 -9.954551823248E+00 -1.736487886320E+01 -6.738624014398E+00 -1.732621818911E+00 -1.448011193972E+01 1.739147480588E+03
 -7.216765925751E+00 1.640750637820E+01 -1.776300360957E+01 1.211532296803E+00 3.051825228664E+00 -1.233938585011E+01 -1.648679988930E-01 -2.285128968515E-01 3.122793643367E-03 1.250351194985E+00 -2.477501740879E-01 5.667032325703E-01 -1.259366988320E+01 1.586157961439E+01 -4.254661446197E+01 9.474179151364E+00 -3.768660350839E+00 1.613339177239E+01 -3.678504413165E-01 -3.792210228094E+00 1.142473680635E+00 2.968855900151E+00 -1.994119290061E+00 2.680216822048E+00 9.356889982701E-01 -2.253740381306E+00 -1.274563340187E+00 -4.165638434212E+00 1.802527074921E+00 4.798401880621E-01 -1.011286165369E+01 -6.428923206463E-01 -1.188623498724E+00 5.943620735144E-01 -6.579389889542E-02 -1.824431697966E-01 7.026305261165E+01 1.245630529355E+02
 1.310718227023E+02 -2.601108368492E+01 1.659452088012E+01 -1.479468341885E+01 8.515080598900E+00 -1.605229788605E+01 8.578476867529E-01 -1.625747306880E+00 -2.831773187522E+00 -3.353919938232E+00 -1.722443871705E-01 -9.764680858913E-01 -2.186008773327E+02 1.575385969852E+00 -1.928934298424E+02 2.621473057036E+01 2.566942317176E+00 6.129138782740E+01 -1.448347119753E+00 -1.709404293777E+00 -6.059147385546E-02 4.708981970165E-01 6.053722013525E+00 -3.479839777107E+00 -6.198634742944E+00 -4.567947575728E+00 3.304368541076E+00 2.484509227993E+00 1.334432849152E+00 -3.601610577460E+00 1.350998457738E+01 4.040328244235E-01 -4.372249246517E+00 -1.447549877039E+01 -2.313095092436E-01 -1.813607547548E+00 1.240162238022E+02 4.102412912511E+00 1.641720671499E+02
 -7.236683735698E+02 4.737280685934E+01 2.205438561793E+01 2.325620780318E+01 -2.434897201996E+01 5.229145733367E+01 -4.955031380920E-01 -4.176760050551E+00 -2.202268780072E+01 -3.452511100956E+00 3.260841528511E+00 -2.679429965840E+00 -1.211988400589E+02 -1.074381926630E+01 3.348439357292E+01 -6.497552119776E+01 -2.569853744803E+00 -1.721842105378E+02 7.666936052648E+00 7.202503863879E-01 5.964434498684E+00 -8.580331410433E+00 -1.841407776833E+00 -9.670300360365E-01 4.595667557796E+00 4.364798124808E+00 -4.766078943534E+00 -1.007513185111E+01 -9.216990509551E+00 -4.836992414782E-01 9.584958294330E+00 3.204696942007E+00 1.429831018763E+01 1.879995561211E+01 4.353749364394E+00 9.964532395668E+00 3.277901746599E+01 2.100940372721E+00 -2.817367369169E+01 9.397302647205E+02
 8.214855305764E+00 2.878528827027E+01 4.523668489700E+01 -1.163968572829E+00 -3.375224038161E+00 -1.854368320967E+01 3.350911466304E-01 3.879216095828E-03 -5.228472986334E-01 -1.934053355058E-01 3.372271984154E-02 -2.444706108151E-01 1.622454407551E+01 1.163638275171E+01 -8.975124519515E+01 -2.804359779516E+00 -1.796575650189E+00 3.616211167264E+00 3.006386310163E-01 7.264692780381E-01 1.158284241871E-01 1.048762203078E-01 -3.654825320149E+00 7.740574732010E-01 -2.371949037831E+00 1.266212527879E+00 -2.563879858556E-01 1.158273135224E-01 -9.407168336183E-01 1.212410432318E-01 2.113182712451E+00 8.042092669092E-01 2.159252736378E-01 2.977378330384E+00 -2.817997474615E-01 -2.329232496539E-01 1.132023274523E+01 -1.632165891433E+00 1.345816500462E+00 3.378420417166E+01 9.087130719580E+01
 -1.608317435115E+02 1.133073167947E+00 4.973578115523E+01 -9.380207790285E+00 3.890337122615E+00 -1.044907167174E+01 -2.562388175928E+01 6.470083262722E-02 -6.117470652728E+01 -7.140600598278E-01 -1.980019698210E-01 1.343990365362E-01 6.887431579397E+01 9.984371290253E-02 -1.075955418536E+02 1.264722233607E+01 3.763236326750E+00 3.324673330010E+01 -5.141839704264E-01 -1.952829612829E+00 -7.910851792721E-01 -3.464659616044E-01 -1.143264343164E+00 -2.410564382424E+00 -2.333070533402E+00 -1.572224990785E-01 1.621845394944E+00 -3.195137509953E-01 3.721795269188E-01 -2.088299418950E+00 9.006471268277E+00 4.829929564973E-01 -1.659457706730E+00 -7.426616141579E+00 6.345578572562E-02 2.796840215549E-01 3.771466099455E+01 -1.407771802826E+00 -4.400907610521E+00 1.023877980938E+02 1.569763334809E+01 1.155035811909E+02
 -3.630564743985E+01 2.784887287446E+02 5.890279682429E+01 6.256594235704E+00 -8.141200082348E+00 8.243795069293E+00 -1.639410832673E+00 5.777163767207E-01 7.580537075463E-02 -5.710069522717E-01 1.895228413799E-01 -4.942276775516E-01 -7.692445508389E+00 6.140904960065E+01 1.352820515366E+01 -2.130520750957E+01 -6.812411274839E-01 -4.569602773613E+01 -2.873824628618E-02 1.304702420430E+00 -1.642462687219E+00 -1.339078506461E+01 1.153858471582E+00 1.711149366968E+01 1.259480819748E+00 -3.578855580556E+00 -4.730691009465E-01 1.616076510109E+00 -1.267495534410E+00 -1.978923277225E+00 6.208238896857E+00 -4.180745999402E-01 4.716429517651E+00 3.970641807366E+00 4.178706965335E-01 -1.045726482182E+00 -5.506414552462E+01 4.820554513023E+01 -1.777374898245E+00 -9.260041445016E+01 -8.641538122663E+01 -2.069921899828E+01 2.095711791833E+02
 3.659933014776E+02 -2.711526600990E+03 -9.410212594814E+02 -2.916567311087E+01 5.866343460737E+01 -1.933569469847E+02 6.083051535457E+00 -1.688812241687E+00 -1.490490482697E+00 -7.656782512881E+00 1.252704063093E+00 -1.563997223360E+00 -2.290595098065E+01 -3.106760683778E+02 2.989645194320E+02 1.662305279166E+02 -4.352578329988E+00 4.379122965579E+02 1.508134744954E+00 -2.990356091040E+00 1.479977367023E+01 -4.237062637417E+00 1.355664854559E+01 -1.446826767594E+01 -8.292439044845E+00 1.695028841800E+01 -1.452436857881E+01 4.216705280784E-01 2.392941810755E+00 2.812726768263E+01 -1.245804197137E+02 -1.403287549461E+01 -2.440616127069E+01 2.550966715388E+01 1.037132985745E+00 4.077007426267E+00 -1.270242029579E+02 -6.512545372678E+01 1.538773631509E+01 -1.735412881086E+01 -7.770533519626E+01 -6.436122559473E+00 -2.462606285092E+02 2.960787144133E+03
 1.028790667823E+01 4.335694281509E+01 -5.650310612510E+01 -2.681869240950E+01 2.007023086592E+01 -4.635057181062E+01 -1.220281606314E+00 7.894574214147E-01 -2.956523320450E+00 -2.725455455968E+00 -9.533080983413E-01 3.951490526226E-01 3.517860568981E+01 -2.424984140821E+02 -1.718607113616E+02 5.191283175795E+01 8.389046344953E+00 1.476547546964E+02 -2.784409001187E+00 -7.358822729916E-02 -6.099815601974E-01 2.054988341205E+01 3.421468409940E+00 -1.972040091632E+01 -1.178467442853E+01 -2.664813926031E+00 2.828165395919E+00 1.891596991738E+00 5.301682413851E+00 -2.743175158430E+00 1.644302772015E+00 -1.769633435442E+00 -9.883605796719E+00 -1.152125511762E+01 -7.544894553891E-01 -2.730960419627E+00 1.730101567531E+01 -4.633365384697E+00 1.268956945120E+01 -2.965889756935E+01 -9.851323051309E+00 2.274867483340E+00 -4.708989442059E+01 2.620803766207E+02 2.380056444950E+02
 1.601411779155E+01 -1.281660361498E+01 -8.027027854358E+01 -3.378061580355E+00 -4.312059265122E+01 -3.678297079710E+00 -1.219957860425E-01 1.048295830244E-01 -6.431219415646E-01 -9.471701306656E-01 1.004552162342E-01 -2.995599364587E-01 -1.105285764388E+01 8.200147752871E+00 5.323188580911E+01 -1.492789515876E+01 -3.049483217417E+02 -2.346867664164E+01 -4.466115771450E+00 -7.317093875077E-02 -1.291889517044E+00 1.945112182160E-02 4.170691300926E+00 -2.006431253383E+00 -2.761572204373E+01 5.837781336008E-01 4.451466461152E+01 2.198999275977E+00 3.605157339087E-01 6.093628147129E-01 -4.047727866390E+01 2.550838424820E+01 -1.678351547501E+00 -3.411357183498E+01 -2.892515332691E+01 -6.501851409398E+00 -1.970440301639E+01 -3.154950943601E+00 -7.198652113595E-01 7.633801927171E+00 1.655797993872E+00 -1.932237753209E-01 3.644674871001E+00 -4.149330315231E+01 -5.806595619512E+00 1.419492720873E+02
 1.363598721157E+02 -5.632077939189E+01 -7.169806088871E+02 -4.108021508636E+01 -6.736043413125E+02 1.686576894529E+02 3.599697540082E+00 -2.826262921686E+00 2.987264086730E+00 3.124601241280E+00 2.327701801221E+00 -2.937330510184E+00 -7.716678114568E+01 5.050573747089E+01 5.644099872965E+02 -1.178421106483E+02 -1.599307651291E+03 -1.886636003498E+02 2.914553126399E+00 3.252783212036E+00 -4.619878961337E+00 -1.882864774247E+00 1.772411657565E+01 1.433152569814E+01 2.881034296954E+01 1.595054693168E+01 1.521137886204E+01 -1.509541673891E+01 -8.643662979688E+00 1.058450243219E+01 -1.005255458902E+02 -4.894980387623E+01 -2.384870694156E+01 7.717784800218E+00 -1.613867027341E+01 -1.518094153448E+00 -1.988568453233E+02 -1.376972652070E+01 -2.629297791587E+01 8.221500955597E+01 3.020492187067E+00 -1.297122816706E+01 2.613577501330E+01 -2.768048025557E+02 -6.819849285127E+01 2.703466698610E+02 2.138278115632E+03
 2.795947813678E+01 8.358206566305E+00 -2.638931895601E+02 5.182405644826E+01 3.052661880277E+02 -1.138204660908E+02 3.214519091800E+00 -2.800121582022E+00 6.100095023171E+00 6.467514237075E+00 3.069605594179E+00 -2.347410275162E+00 -2.594254170963E+01 4.887225783713E+00 2.475599532105E+02 -1.018150893931E+02 -7.029261271414E+02 -3.136220727314E+02 2.095906610534E+00 7.817763660012E+00 1.897197251516E+00 -8.126327193335E+00 1.241722186366E+01 2.225898811599E+00 8.010924184148E+01 1.588674799073E+01 -5.599660170194E+01 -2.177506603118E+01 -1.598819268730E+01 1.577157359162E+01 -7.712630450556E+01 -1.269152262427E+00 -2.978056935076E+00 4.277420090998E+01 -3.941327344057E+00 3.382962095158E+00 -6.778847712914E+01 2.511208796735E+00 -2.518575736082E+01 4.193083161447E+01 -1.062178625437E+00 -1.253640441263E+01 1.014115645405E+01 -5.083386513689E+01 -4.027547841840E+01 3.225589521769E+01 2.957909976973E+02 5.533331784986E+02
 -2.465238767989E+00 2.240344183828E+00 -2.800105570337E+00 6.592079460558E+00 2.565632203206E+01 -2.010949124321E+01 2.433483222981E-01 -4.183474067140E-02 5.856868316103E-01 -1.837968418621E+00 7.280647099472E-01 -1.088682163337E+00 -1.530216392281E+00 -1.980224252205E+00 5.308206301165E+00 -3.501028857967E+01 2.458068123026E+02 -3.608167671694E+01 5.077764677281E-01 3.433350016584E+00 1.052026557395E+01 -2.597519642218E+00 1.471311728703E-01 1.064793218642E-01 -1.402618411519E+00 1.589583952422E+00 -4.320190490009E+00 -1.951791934107E-01 -7.745830196733E+00 2.897883772754E+00 -1.557814684026E+02 -1.416347767917E+02 -1.581982118995E+01 2.068843873512E+00 7.704904148016E+00 -3.541085981966E+00 -1.420531173093E+00 -1.529134093809E-01 -4.536962838141E+00 3.591686288883E+00 2.527827525510E-01 -2.080578344397E+00 8.718932727485E-01 9.542677000789E+00 -3.008211990990E+00 -1.564605487046E+01 -3.593357547970E+01 -1.612865913260E+01 2.063900117924E+02
 -1.154984356502E+02 4.353200243340E+01 6.167041760159E+02 3.797441989961E+01 -6.940877049954E+02 -3.012107964541E+02 -2.016306499562E+00 1.678749616901E+00 -3.793703673064E-01 1.901337153359E+00 -1.501550349173E-01 2.008120762236E+00 6.495333040375E+01 -5.056863681227E+01 -4.658701501641E+02 6.792827624113E+01 -1.506923566705E+03 -5.162939212531E+01 -1.766602209807E+01 -2.443324660041E+00 -1.022032969151E+01 6.249561086312E-01 -4.428616335625E+00 -3.418995661244E+00 9.380265394726E+00 -8.486368868949E+00 8.156867800952E+00 3.296883367313E+00 1.701538807384E+01 -1.283032839110E+01 -3.386083329407E+01 -1.093174332210E+02 7.372123221671E+00 -2.053442654615E+01 -1.521037058734E+01 1.276190787975E+01 1.586184898547E+02 1.294389333664E+01 1.590387847429E+01 -6.625958517621E+01 -3.455732096881E-01 4.522230373109E+00 -1.824929759872E+01 2.351823918492E+02 4.459170508609E+01 8.266308920131E+01 2.190522610355E+02 6.986273129076E+01 -1.062677569284E+02 2.109066535097E+03
 5.525139126149E+00 1.040393337267E+01 -1.363316974527E+02 6.557561407053E+01 -4.064779577730E+02 -2.497315419756E+02 1.577938693323E+00 -1.005101916809E+00 3.850704826907E+00 1.885731303831E+00 1.900407791720E+00 -1.641950463928E+00 -1.671737848714E+01 -2.786450711346E+00 1.396886570461E+02 -5.460028638449E+01 3.769517342922E+02 -1.428067862928E+02 2.937542707488E+01 -8.327035635929E+00 -9.638298259532E+00 -6.397218857561E+00 4.836016653723E+00 7.210856320869E+00 -5.685882786341E-01 6.186769571337E+00 -7.739634453662E+00 -1.322470281772E+01 -1.554294401691E+01 4.158866410696E+00 -5.804660644730E+01 -1.394581727188E+01 2.114150717577E+00 3.494374728977E+01 2.031895961526E+00 2.611270499349E+00 -2.521171590612E+01 7.088857667850E-01 -1.705494850398E+01 2.220892545595E+01 6.327463928926E-02 -7.456661147481E+00 5.935577371070E+00 -6.494706846512E+00 -2.149280545636E+01 -2.930779035648E+01 -2.942430965471E+01 2.377540557776E+01 3.664130465445E+01 8.645319602449E+01 4.131038089587E+02
 -1.584031630104E+01 -1.254213373658E+00 2.735702985269E+01 7.683984067572E+00 -8.846794051106E+00 2.165383787245E+01 4.093530910067E-01 8.115675984107E-03 7.155174190529E-01 -1.174428518978E+00 7.595280608027E-01 -6.004643251906E-01 -2.162830409264E+00 -7.180592102466E+01 3.864065204280E+01 -1.938514161936E+01 8.665221741284E-01 -5.431812191997E+01 6.098334280778E-01 1.483450592041E+00 -6.334171396895E+00 -2.928104748361E+00 1.029168139743E+00 8.821154530890E-01 2.008671268980E+00 1.680770615075E+00 -1.267414108907E+00 -1.605170559691E+01 -3.454330658360E+00 2.041323152675E+01 2.020844076704E+00 2.115444803033E-01 4.289056058599E+00 3.671928245957E+00 9.565030204374E-01 1.417363157258E+00 -1.018481372273E+02 -1.001356645279E+02 8.446549589756E-01 -1.758644482748E+01 1.833120730467E+01 -1.889959988784E+00 -3.326582196852E+00 4.977383741849E+01 2.296644354601E-01 3.244459398235E+00 2.677500029847E+01 1.162640482909E+01 2.028391749045E+00 -1.997391405402E+01 7.752285828198E+00 1.611046102923E+02
 -8.767865746422E+01 -2.451327638501E+03 9.063836278413E+02 2.552603781589E+01 -7.532861601478E+01 1.922489001868E+02 -5.926381809030E+00 3.659200185129E+00 -1.662729060770E+00 -1.181036941611E+00 -1.907326907335E+00 2.314121516398E+00 3.116494100030E+01 -6.880340617815E+02 -2.794597956037E+02 -1.797530366066E+02 1.267758366849E+01 -4.764747907888E+02 -6.716221733866E-01 -1.900718136689E+01 5.763434225289E+00 1.374968807011E+01 -6.900537133556E+00 -3.100172104514E+01 -6.748416073538E+00 -9.352617544497E+00 -2.194522497947E+01 1.386853663436E+01 2.563060584239E+01 8.212713265347E+00 1.572706850494E+02 1.306960196770E+01 2.858745000571E+01 -4.122684948390E+01 6.589841652204E-01 -8.030038067949E+00 1.068302320455E+02 -6.863921535913E+01 1.410206356216E+01 -7.000023334284E+01 -3.753610068021E+01 -5.830169274804E-01 -6.124817131236E+01 2.665104243178E+02 -3.147990211935E+01 5.198896359313E+01 3.151315455381E+02 3.550254452531E+01 -8.956476348928E+00 -2.691584528412E+02 -5.050965121686E+00 9.450585909970E+01 2.948856616631E+03
 2.742776216152E+01 -2.253174656124E+02 -2.637628089303E+00 -2.740251448264E+01 1.418135747841E+01 -4.932925716141E+01 -1.448272838808E+00 6.562475020999E-01 -4.238746770261E+00 -3.739759974872E+00 -1.559562454643E+00 8.903413925385E-01 1.316060996906E+01 4.351692832808E+02 -3.644645751816E+02 4.775374781341E+01 9.385294059762E+00 1.262222544718E+02 -1.470509620866E+01 6.320529994924E+00 -2.003759174635E+01 1.556289024616E+00 -5.110467546649E+00 -8.270359193830E+00 -1.133437983462E+01 -8.515031124516E+00 6.044887638379E+00 3.933962016722E+01 8.974500335622E+00 -2.982220800661E+01 1.333285673514E+01 -1.356403517982E+00 -1.033804540066E+01 -1.821455351224E+01 -1.484014794289E+00 -5.122527107514E+00 2.767856714103E+01 -6.646585181398E+00 1.664240321610E+01 -2.843426594983E+01 5.481329810379E+00 5.550085792868E+00 -9.358876957638E+00 7.025957211812E+01 1.124416696945E+01 -1.571727054341E+00 -5.172771443503E+01 -4.535370597226E+01 -4.393527704974E+00 3.222284000145E+01 -2.471294481172E+01 -5.652076158262E+01 -2.593417361456E+02 3.777734249685E+02