#BIOSYM hessian 1
@Type: Hessian Update
@Units
 distance: 	A
 energy: 	Kcal/Mol
#header
@natom 5

#label
L1      L2      L3      L4      L5

#element
Li Li Li Li Li

#matrix
15
 2.091173768878E+03
 1.665283667061E+02 2.101707589115E+03
 -6.879658942522E+01 7.870798157927E+01 2.164895579651E+03
 -1.821339323244E+02 5.942235476909E+02 3.207237435323E+02 2.705190380595E+03
 -6.555876826300E+01 1.953164363546E+02 1.056783173834E+02 2.891327341483E+02 2.400049336617E+03
 -6.886348670133E+01 1.759662263604E+02 2.499850949490E+01 6.987717900687E+01 -4.511762935994E+01 2.439041121745E+03
 1.026663021323E+02 -1.244426075755E+02 1.790461499246E+01 3.103080431288E+02 8.222819221117E+01 7.010545985800E+01 2.131673283836E+03
 -1.200930699959E+02 2.180940148293E+02 1.046713356672E+02 -9.631672213499E+02 -2.824118948969E+02 -5.774456610602E+01 2.375139165849E+02 1.527784048117E+03
 1.419852994997E+01 -2.097447787878E+01 9.571709795561E+00 -2.385105444535E+02 -6.193903737524E+01 1.033665728999E+01 3.680062554160E+01 -1.301017571698E+02 2.180814748457E+03
 1.068501907122E+02 -4.743310159606E+02 -2.592315278070E+02 -4.414418730624E+02 -1.700723504490E+02 -3.035512602843E+02 -2.296257971552E+02 6.393969611941E+02 1.668889716202E+02 2.900552157027E+03
 -3.672438512228E+01 -2.363354727216E+02 -3.502169607101E+02 1.257341342398E+02 -1.875662552012E+01 -1.386456866302E+02 -1.537148962301E+02 7.401027098078E+02 1.740131113445E+02 3.370830875873E+01 1.646928463585E+03
 -3.394608430944E+02 4.884076026393E+02 -4.623144422240E+01 4.207397305184E+02 2.214206832120E+02 -2.230691933859E+02 2.163969010468E+02 -3.348996605386E+02 -1.974113234702E+01 -1.946964534064E+02 -3.986761495307E+02 2.078094363088E+03
 1.222897913232E+02 -1.619782908610E+02 -1.060024129272E+01 -1.510764976168E+02 -1.357298076475E+02 2.324321081206E+02 -7.417571122108E+01 2.063494135669E+02 2.062241734180E+01 -9.548855680117E+01 3.099683835377E+01 -1.029793350648E+02 2.439297095037E+03
 5.584785669785E+01 -3.793644687247E+01 6.115932608120E+01 -4.592319479507E+01 -5.335113188877E+01 6.554165583622E+01 -4.158460499553E+01 3.727724289623E+01 3.900216107764E+01 -2.870190359012E+01 1.089070455741E+02 2.374752413799E+01 6.036184668285E+01 2.185949411047E+03
 4.629223892706E+02 -7.221073326989E+02 8.761176600281E+01 -5.728301086022E+02 -2.200423338596E+02 -1.046097442237E+01 -3.412076014384E+02 4.180746481460E+02 5.986413752538E+01 5.905902698755E+02 7.135256855257E+02 4.517935275888E+02 -1.394749491049E+02 -1.894506671330E+02 1.652037664024E+03

