#BIOSYM hessian 1
@Type: Hessian Update
@Units
 distance: 	A
 energy: 	Kcal/Mol
#header
@natom 3

#label
H1      H2      O3

#element
H  H  O 

#matrix
9
 3.934908013948E+02
 -4.060334524771E+02 6.566835783140E+02
 -2.567435393085E+02 4.527507917291E+02 3.159268733825E+02
 3.306962830415E+01 -2.259668317588E+02 -1.731609718835E+02 1.712141761187E+03
 1.004019243419E+02 -1.157051246000E+01 7.208501895698E+00 1.479736643117E+02 9.065703366927E+01
 8.471758158262E+01 -4.594204126444E+01 -2.250424261188E+01 3.957501956412E+02 9.573031962068E+01 1.400904141283E+02
 -4.265604296990E+02 6.320002842359E+02 4.299045111920E+02 -1.745211389491E+03 -2.483755886536E+02 -4.804677772239E+02 2.171771819190E+03
 3.056315281352E+02 -6.451130658540E+02 -4.599592936248E+02 7.799316744708E+01 -7.908652120926E+01 -4.978827835624E+01 -3.836246955822E+02 7.241995870632E+02
 1.720259577258E+02 -4.068087504646E+02 -2.934226307706E+02 -2.225892237577E+02 -1.029388215164E+02 -1.175861715165E+02 5.056326603188E+01 5.097475719810E+02 4.110088022871E+02

