#BIOSYM hessian 1
@Type: Hessian Update
@Units
 distance: 	A
 energy: 	Kcal/Mol
#header
@natom 19

#label
L1      L2      L3      L4      L5      L6      L7      L8      L9      L10     L11     L12     L13     L14     L15     L16     L17     L18     L19

#element
Li Li Li Li Li Li Li Li Li Li Li Li Li Li Li Li Li Li Li

#matrix
57
 1.083371105824E+01
 4.297522210541E+00 2.006523631041E+01
 6.976117266873E-02 8.075955157955E+00 1.825063832744E+01
 2.261520847531E+00 -5.235446527548E-01 4.726028868256E-01 1.481066445955E+01
 -1.110392993933E+00 9.991330977464E-01 4.729082025034E-01 5.191347496592E+00 1.139993171377E+01
 5.959673704586E-01 -6.386873906219E-01 4.057019296369E-01 3.014845431475E+00 -1.494175243556E+00 1.508110333687E+01
 1.958293611013E-01 1.467032852607E+00 7.834065189813E-01 6.124163550648E-01 -4.069373780541E-01 -2.203253476182E-02 1.465605248497E+01
 7.728056586897E-02 -9.310374000227E-01 -2.991369453140E-02 -5.025594023924E-01 -3.444529429827E-01 8.734795659286E-02 3.740787754564E-01 1.625028995670E+01
 -4.925463899914E-01 9.356821938995E-01 2.002407759215E-02 -1.102097059121E+00 3.193527382576E-01 1.028658498875E-01 2.720601166332E+00 3.303943911489E+00 2.347582122968E+01
 -2.024031985198E+00 1.133679574540E+00 -2.005243516533E-01 -1.836074150766E+00 5.948117401665E-02 -1.001556486443E+00 -5.544834458785E-01 -6.991890330523E-01 2.805598424546E-01 1.070314994569E+01
 -1.691010752281E+00 -1.105506210858E+00 7.024104077580E-01 -4.512565377840E-01 5.651588583592E-01 -9.547588298342E-01 1.088278435002E+00 1.287157672777E+00 -2.693181193800E-01 -9.754414582727E-01 1.765118453754E+01
 -1.425403127538E+00 1.102828319608E+00 2.093118124071E-03 -1.407867922354E+00 2.275837640114E-02 -5.210924980513E-01 -5.848240640823E-01 -1.883214329624E+00 -5.029174346856E-01 2.338528353825E+00 -2.081724451309E+00 2.213986078760E+01
 -1.704528853137E+00 4.058155985885E+00 2.370960957195E+00 -4.740155605259E+00 2.359889881276E-01 -2.092999988875E+00 -1.418146855847E-01 6.516028944946E-01 -1.269985771318E+00 1.765328460737E+00 2.584299341102E-01 2.607116250463E+00 2.266570592115E+01
 6.108490704197E+00 -7.415513383625E+00 -4.999327209330E+00 1.276707116159E+00 -1.930970783480E+00 1.745021108416E-01 -1.208671441153E+00 -5.207246229645E-01 -1.084171782611E+00 -3.559594659429E+00 -8.857031982180E+00 4.415218426815E+00 -1.642119550245E+00 3.009596774809E+01
 7.854160301297E-01 -6.579511797227E+00 -1.537624661741E+00 1.710222521879E+00 -3.163949685828E-01 5.281504894994E-01 3.837820605243E-01 3.198844923058E-01 4.162536361973E-01 -5.654272999112E-01 5.812806534888E+00 -5.086212109671E+00 -3.302148915040E+00 5.520276177559E+00 2.448948003750E+01
 6.096628794209E-01 9.694580640113E-01 -9.905348833274E-01 -5.260650448423E-02 2.605654797728E-02 1.089640227745E-01 -4.732922022708E+00 2.933517604553E+00 -2.781572279014E+00 -5.668990842979E-01 -3.709016154177E-01 5.942251221525E-01 -9.798517252441E-01 -1.125521889894E+00 -7.111791838528E-01 1.804084244832E+01
 3.616145624407E-01 2.208960963276E+00 1.028751090731E+00 3.112184363895E-01 -3.915606323861E-01 1.109491218765E+00 3.436443050969E+00 -2.095127301140E+00 9.889697837813E-01 -6.365778047958E-01 -1.581036963752E-01 3.073759234374E-01 6.240033233227E-01 -1.384713862509E+00 -1.992387503401E+00 -2.462268792002E+00 1.915747540377E+01
 5.260100372817E-02 -1.492438363648E-01 1.629675433979E+00 2.755688391170E-02 3.836178173815E-01 5.454222286277E-01 -3.278619392715E+00 2.039606205617E+00 -2.682454197709E+00 2.105109517699E-02 3.412620891146E-01 -2.519191545856E+00 3.132969478859E+00 -4.951914065528E-01 1.067634326085E+00 -7.826142290531E-01 2.719826793592E+00 2.319241216551E+01
 -6.091886997637E-01 9.110654941380E-01 7.125613818035E-01 1.152288986821E+00 -2.245336842595E+00 2.785198965893E+00 -3.360143129356E+00 -5.576544171982E-01 3.507720117446E+00 2.376586303342E+00 1.912731387035E-01 -3.148946030635E-01 1.066494759100E+00 -2.683840188772E+00 -8.164171613364E-01 3.571751872713E-01 -6.470649554842E-01 -1.431766950784E+00 1.871450920154E+01
 2.266929484623E-02 6.152794808659E-01 6.260288806675E-01 -2.527250246127E+00 -8.916107970364E+00 2.875996364500E+00 3.150398312147E-01 -9.441209870450E-01 -6.542020825719E-01 -1.769327783163E+00 7.422833243993E-01 -6.816094744991E-01 1.441199908758E+00 4.395839992187E-02 3.916304618006E-01 -5.359699300907E-01 -1.181823534552E-01 -2.512408590983E-01 6.210915525878E+00 1.834386275123E+01
 -5.194776221267E-01 3.338520774615E-01 -8.315828066978E-02 9.872808931522E-01 5.611348268774E+00 -2.996496205925E+00 3.050727821331E+00 6.646701484788E-02 -6.227924250128E+00 -1.142187593965E+00 5.120314817227E-01 -4.771381497503E-01 4.361595205269E-01 -2.437621650357E-01 -2.625349809574E-01 7.738909126924E-01 -4.494217648610E-01 9.629906422190E-01 -3.362760488638E+00 -1.013155045190E+00 1.465022389581E+01
 -9.042926548247E-01 -1.844269806265E+00 -3.004721759520E-01 -6.200935131267E+00 1.833221150334E-01 1.291460334276E+00 -2.263050563570E+00 -7.757382102317E-01 -4.812991097512E-01 2.472305105696E-01 -4.393353918991E-01 3.031551735767E-01 5.032912328033E-02 1.970221162598E+00 1.500949574759E+00 -6.905499393937E+00 -2.761496425045E+00 3.657813621393E+00 -4.068053054927E+00 -4.523588402409E-01 3.739743273336E-01 1.958120183724E+01
 9.748257501678E-01 -2.448655198500E+00 -1.418896665743E+00 9.150228164306E-01 9.043082933805E-01 1.294489782529E+00 8.685691753145E-02 -2.737299116193E+00 4.656973939348E+00 9.462802251473E-01 1.761140812371E-01 4.868681491089E-01 -2.218912335027E+00 1.770235626161E+00 1.527283682111E+00 -4.322430307095E-01 -3.256846233241E+00 -4.649874436711E-01 2.388554659477E+00 -3.476823544664E-01 -7.507912693547E-02 4.958790948948E+00 1.155982502666E+01
 6.074016662279E-01 -1.499843975580E+00 -1.273872613553E+00 2.906742124296E+00 -5.254826228393E-01 -1.522356781545E+00 1.192626742491E+00 2.929890948142E+00 -2.507607606900E+00 -1.912056366766E-02 -3.895020266666E-01 -9.231419518874E-01 6.834483211100E-01 1.575047990948E+00 3.334086400095E-01 1.949771609213E+00 3.866803458362E-01 -1.284654857950E+00 1.128130541386E-01 4.014068677882E-01 -9.609247022212E-01 -1.456674700906E+00 -4.930486034759E+00 1.994651056875E+01
 3.110298435526E+00 -1.015254317228E+00 -1.747456010844E-01 -4.421449688190E+00 -3.844017178271E+00 -4.138920858731E+00 3.051539964527E-02 1.086350200632E+00 -6.695487609627E-01 -3.012511265901E+00 8.201683617455E-01 -8.024166406311E+00 -4.380132435578E+00 -2.816255084000E+00 -2.985952442085E-01 1.401473563388E+00 1.641914256036E+00 -1.478122117198E+00 5.882440643520E-01 1.452442106950E+00 -1.412505967743E+00 3.240253925194E-01 -7.359593256115E-01 -7.653474021637E-01 1.442888060110E+01
 -2.716221411267E+00 -6.183800468672E-01 -2.256562985096E+00 -3.648170451490E+00 -2.241181685177E+00 4.164151461225E-01 -1.411242864545E+00 2.864536691913E-01 8.451283222750E-03 -5.036959575126E-01 -5.304772313060E-01 1.295907052600E+00 5.901921057466E-02 -6.972655757737E+00 -1.702544048998E+00 -1.002071866833E+00 2.162855821206E+00 1.176592366730E+00 -5.288913777823E+00 3.726987558174E+00 8.420327639702E-01 2.980375657657E+00 -5.449913687869E+00 -4.333551139919E+00 2.249369392420E+00 2.795937095260E+01
 1.002825770497E+00 -7.804498984260E-01 -7.966293871622E-01 4.125580822856E-01 -2.427255307144E+00 3.321521594070E+00 1.713414493095E+00 5.627569013504E-01 4.874266676978E-01 -2.206294944208E+00 1.042248393016E+00 -5.552303011514E+00 -3.613228573593E+00 -8.578931669798E-01 1.868669341785E+00 -1.456882467908E-01 8.469190050406E-01 6.086117603984E-01 -3.720474762739E+00 2.530749147773E+00 -1.392882828773E+00 -7.058932056760E-01 -2.208451405098E+00 -4.169162136309E-01 1.414099781984E+00 3.660834247861E+00 7.173018545936E+00
 -1.048709024664E+00 -3.823601759093E-01 -7.249414094768E-01 9.652029896564E-01 -1.174761285983E+00 7.185501498146E-01 7.278932048338E-01 -1.908894384908E+00 -3.389349970625E+00 -2.243223495115E+00 -6.016796383409E-01 5.126332513158E-01 -4.420544301227E-01 -6.891080536795E-01 -1.852031807015E+00 -2.887022399540E+00 3.252123472978E+00 2.898443390949E+00 -6.166301686774E+00 2.913789520317E-02 4.588028787352E-01 1.997257965155E+00 -3.529271517188E+00 -1.550294239325E+00 -1.360091419263E+00 1.002806134159E+01 1.997895593543E+00 1.038596697491E+01
 -5.125763070530E-01 -1.070407192006E+00 -1.848900113499E-01 2.031792746754E+00 5.776035471820E-01 -3.853353330385E+00 4.422739289865E-01 4.715826028091E-01 -3.650488008503E+00 -5.266807306063E-01 -2.117842609121E+00 -1.229167995322E-01 -3.162428556898E-01 -4.408981569481E-01 -5.317909989426E-01 6.403067966840E-01 -1.408801800026E+00 -1.561561684534E+00 -7.768203887490E-01 -7.355144151866E-01 -3.377147239594E-01 -1.401650800698E+00 -3.303035214047E-01 4.809497621857E-01 2.655956877120E+00 -6.399228745727E+00 -1.175487825321E+00 -9.612227996658E-01 1.088289925523E+01
 2.325561207127E-01 -7.968665852462E-01 6.462291345620E-01 2.321174602984E+00 -1.052109182030E+00 6.093592037303E-01 4.715045961322E-01 -2.858869582453E+00 -6.381684429971E+00 1.070070699700E+00 -2.998064160197E+00 2.067341181748E+00 -4.214941580435E+00 -1.644428373385E+00 -9.972592579573E+00 -9.066376306517E-01 1.972571262246E+00 -2.586028551004E+00 6.391922266213E-01 6.501693346209E-01 1.934252511348E+00 -2.144655437135E+00 -1.367557412377E+00 -1.728780481764E+00 2.952843325456E+00 7.808643044554E+00 -7.138350737220E-01 5.344975845876E+00 1.221670667208E+00 1.638010335056E+01
 -1.385406424203E+00 1.141433989866E+00 2.957569790502E-01 -3.328229412650E+00 4.967873748739E-01 -1.555504915836E+00 -4.434644148248E-01 3.812391431639E-01 5.789465234610E-01 2.638236416428E-02 -7.712727370095E-01 -8.523649236889E-01 4.855619275017E+00 -2.178157067285E+00 -1.276118140754E+00 1.100146576361E+00 7.330505477756E-01 2.044524113789E+00 -2.774747219611E+00 6.985781529074E-01 1.341295876247E+00 2.284746319034E-01 -8.039615536418E-02 1.072909904825E-01 6.107138835006E-01 1.481218388753E+00 -1.227064256377E+00 -1.096075382913E+00 -5.540353116557E-01 -2.526121097001E+00 1.313111890914E+01
 1.540354096464E+00 7.932380411966E-01 1.843468815266E-01 2.210927784509E-01 -8.918582019088E-01 5.668538660830E-02 1.386632371474E+00 -1.022569773587E-01 -1.405460329317E+00 -3.647174822830E+00 -4.478773543708E+00 -6.138181402545E+00 -2.688370965531E+00 1.591473594271E+00 -8.219246557932E-01 -8.739108967070E-02 4.733086793422E-01 9.762980930473E-01 5.589361074947E-01 -2.338388582395E-01 -6.013436634772E-01 -1.535910632919E+00 -1.471933749348E+00 3.366011199715E+00 3.946668621220E+00 -7.049497743236E+00 1.894217929427E+00 -7.446462633155E-01 2.453673071091E+00 -1.422091903679E+00 3.632560395550E-01 2.155131183094E+01
 -6.287865658602E-01 1.041558191157E+00 -3.719958670929E-01 -1.568180869905E+00 1.395600781777E-01 -1.789995451272E+00 -9.061860791606E-01 9.597013255325E-01 5.720251496811E-01 -3.591013147396E+00 -2.339367661267E+00 -4.324368732224E+00 1.850242471369E+00 -1.708848378179E+00 -2.634353232713E+00 2.719254666257E-01 -1.288103204950E+00 -5.830191170588E-01 -1.330442343553E-01 -2.431030146250E-01 1.151872908468E-01 -1.080143509264E+00 3.102077239725E+00 -6.131502769852E+00 3.863223006527E+00 1.571831657731E+00 -5.718561661361E-01 8.987950251955E-01 1.657285526991E+00 2.678661147865E+00 -1.224325782705E+00 2.126770759912E+00 1.678860566039E+01
 1.694774570794E-01 -6.692512537732E-01 2.804807495571E-01 -6.955403812377E-01 1.128663037626E+00 -4.111068862646E-01 1.056320118894E+00 -1.387961531461E-01 6.707749563343E-01 -1.851320321641E+00 7.172840325257E-01 1.887871392462E+00 -1.122558644563E+00 1.024319607140E+00 8.524125535914E-01 -1.669962213729E+00 8.785199406588E-02 4.519019839126E-01 3.264546260858E+00 -5.020387807342E-01 1.854433313839E+00 -5.549390740990E+00 -1.885669414813E+00 -3.643760248887E+00 -1.965016895167E-02 7.552003891929E-01 -7.924321851286E-01 6.508523206973E-02 8.031913293981E-01 2.972960436758E+00 -3.815929179209E+00 -2.138828190665E+00 1.835499130669E+00 1.470787628042E+01
 -5.770432721340E-01 6.537387057097E-01 6.778685104018E-01 1.090266493960E+00 -6.496790663986E-01 1.504059657458E+00 -1.644001536712E-01 9.678358609164E-02 -6.303546111757E-02 -9.055025937028E-01 -5.313161105592E-01 4.428827930477E-01 1.085909283143E+00 -6.267794053879E+00 -3.394185035299E+00 -3.172667858733E-01 8.976193301263E-03 8.816729610445E-01 1.913369416823E-01 1.461679165423E+00 -8.597606897615E-01 -5.313724697153E-01 3.803855314359E-01 -3.233370044247E-01 -2.192616501480E+00 6.565572193221E-01 7.710482344195E-01 1.678419206177E+00 1.560879336917E+00 1.661465269646E+00 -4.031677013247E+00 -3.357104807088E+00 1.193154542363E+00 6.163102563559E+00 1.468977160029E+01
 6.049174615000E-01 8.345905265851E-01 -8.271511831350E-02 3.755804485710E-01 4.920762076519E-01 -7.631323945773E-01 -3.516276351841E-01 1.170711634349E+00 -2.527603566835E-01 3.434806916477E+00 -4.794692721347E-02 -6.257638574140E+00 -3.923376003877E-01 -1.898484792263E+00 -2.499530446788E+00 1.426112391056E+00 1.777105991580E-01 -8.780845140636E+00 1.376656804458E+00 -1.036292378127E+00 -5.207245949699E-01 -2.879651012716E+00 -1.742933094385E+00 -3.524271706584E+00 2.248738271605E+00 -1.187434542356E+00 2.527649723398E+00 -2.902654976383E+00 8.141820707756E-01 -1.979803517052E-01 1.178755105220E+00 1.678116803464E+00 -1.850502169324E+00 -5.814384525468E+00 -1.853430369915E+00 2.213201682237E+01
 -2.540252871242E+00 1.986387599897E-01 1.558089361898E+00 -1.948328102919E+00 -1.954085102003E-01 5.402728044938E-01 -1.944037499821E-01 -2.172015559665E-01 -1.717644969824E+00 -8.042164099757E-03 -8.256409654230E-02 8.685801073951E-01 -1.080509243442E+00 1.500421767059E+00 -1.386121527688E-01 1.334174705291E+00 -4.804553547086E-01 -1.047333248226E+00 -5.245465712478E-01 -4.382727387216E-02 1.560201164377E-02 3.734907222081E-01 -6.750018920135E-01 -4.021706102545E-01 -1.010160142412E+00 -4.650067794121E-01 6.795456332571E-02 1.015881620905E+00 -2.079912885968E+00 -1.883543495552E+00 8.336558998272E-01 -2.004943062211E-01 -3.968859830636E-01 2.505089140559E-01 -7.351211483793E-01 9.515641420270E-01 1.847698987022E+01
 2.645350820164E-01 2.364988873179E-01 -7.013773533016E-02 -1.897815674000E+00 -7.508907094076E-01 6.058428129912E-01 -1.566077348134E-01 -5.525832693177E-01 -1.209684901668E+00 3.422244735533E-01 1.398355977371E-01 -7.874662835006E-01 1.766867332206E+00 1.855358535245E-01 -2.708678123085E+00 1.276108500428E+00 -5.666527327682E-01 -1.445563133135E+00 8.901421608531E-01 5.525760886552E-01 8.326489695847E-01 -1.785569243891E+00 -2.459244521270E+00 -6.539298592632E-01 7.625355707539E-01 2.303939879051E+00 -6.484431053094E-01 -1.979982574803E+00 -2.652065454872E+00 1.780325567022E+00 9.756840203031E-01 -1.452083680074E+00 -5.266706407596E-01 1.538692326127E+00 1.478076984084E-01 -2.336921309862E-01 6.137119523010E-01 1.337808919856E+01
 1.791358457038E+00 -2.303551770048E+00 -9.390199898541E+00 -1.925143246324E-01 -2.531629617096E-01 2.171750991381E-01 -3.096925913097E-01 -9.861938211481E-02 -3.927593924917E-01 3.930181517966E-01 -1.230758662432E+00 1.035669125011E+00 -1.248271302449E+00 2.027574002421E+00 -1.275728741892E+00 -1.255353629973E-01 -4.435554834474E-01 -6.923303272724E-01 -3.658829260533E-01 -1.011214518164E+00 1.057131580036E+00 5.903990222813E-01 1.009658150237E-01 -9.523229050190E-03 -2.817809791194E+00 -2.512939520663E-01 5.222457507655E-01 3.366880572728E-03 -1.417165482946E-01 -1.984801480173E+00 3.975576857793E-01 1.171530426797E+00 -4.124370701114E-02 -3.141887283825E-01 -1.577943489520E+00 -1.405574816713E-01 -1.147089713417E-01 6.984486135015E+00 2.243113997991E+01
 -4.164732844630E+00 -5.770151146447E+00 -1.983570404198E-01 3.465542252169E+00 1.019108499393E+00 1.442903100810E+00 -7.979290564667E-01 4.739526838571E-01 2.863151791298E-03 -5.102059082942E+00 4.670857347582E+00 2.803131876585E-01 -3.682394059393E+00 5.042492484286E-01 3.680696891690E+00 2.511577824140E-02 -1.554892318935E+00 -1.136106779133E+00 -3.647921613473E-01 -8.550948591440E-01 9.256491605513E-01 1.771259946949E-01 1.750003200815E-01 -5.543230585511E-01 -3.123456359848E+00 7.332242074809E-01 1.186505167704E+00 2.692574311566E+00 -1.239450578167E+00 -2.358160405886E+00 -2.249921565902E+00 1.183230735991E+00 -1.822911778654E+00 -2.058097448130E-01 2.360354029807E-01 -4.683270976843E-01 1.518825433584E+00 -5.053261145991E-01 9.517963491246E-01 1.203116927090E+01
 -3.130103091987E+00 -7.797114148847E+00 1.843825564611E+00 -3.070699344613E-01 1.709405552785E+00 7.089179540659E-02 -6.756305053603E-01 3.742478920650E-01 3.757691582098E-01 4.771913031952E+00 -2.713011166799E+00 -7.120058580046E-01 -1.074469153109E+00 -1.596970060940E+00 1.737109239701E+00 -7.617125274811E-01 -1.267801012744E+00 -2.671182678112E-01 7.650795832897E-01 -2.251536307021E+00 7.599329831671E-02 6.538807729224E-01 1.131932431779E+00 8.436686474173E-02 2.046935708764E-01 -2.333275659991E+00 -1.678753348958E+00 -6.909479373578E-01 3.742725800682E+00 -7.542186274533E-01 5.429446976277E-01 -1.094768319587E+00 -1.721411485682E+00 -9.075558404116E-02 -8.877495709513E-01 -1.052287911074E+00 -1.575282938275E-01 1.023790617159E+00 1.233095821883E+00 1.380315950927E+00 2.467766454416E+01
 6.534123113369E-01 2.759030462824E+00 -8.212124662340E-01 -2.696611950292E+00 2.626497050023E-02 -4.312631177958E-01 -1.363649382481E-01 -4.069137294456E-01 9.825705133477E-01 2.020025530944E+00 1.485299783941E-02 4.711098662732E-02 9.160193368873E-01 -1.746101408925E+00 -2.422987306224E+00 1.078155716046E+00 5.241032341558E-01 2.006736185974E-01 -7.370699647541E-01 -3.029604066491E-01 1.412434546759E+00 -5.651133342182E-03 -4.763412427432E-01 3.850238451572E-01 3.113173972932E+00 -3.203977612237E+00 -3.408701685356E+00 -1.943574865799E+00 -1.707342404044E-01 -2.199381611892E+00 1.082093351967E+00 -4.933066040198E-01 -1.948635768294E-02 -4.768664878475E-02 -1.867879209002E-01 4.655055570173E-01 1.316545456137E+00 1.582080454863E+00 7.477689389245E-01 -4.101300950713E+00 1.358463274582E+00 1.827887757062E+01
 5.350709099656E-01 -1.023156273986E+00 -9.296860960322E-01 1.312340775077E+00 -1.017326236407E+00 5.974220273069E-01 7.677803761133E-01 3.661482617854E-01 1.155182253731E+00 2.130250095878E-01 -5.901101798439E-01 1.441193293613E+00 -2.289365413697E+00 1.970152610088E+00 -1.101759645028E+00 -6.098578246377E-01 -4.816854305387E-01 -1.337452725347E+00 -2.854009673610E+00 -3.721907977720E-01 -1.792021494031E+00 8.377697977645E-01 1.089904816528E-01 5.857998496831E-01 -1.646158107648E+00 -7.300026877352E-01 2.273125693426E+00 2.038820039233E+00 4.059101244533E-01 1.392763076146E+00 -6.964575342686E+00 3.297796384447E+00 2.507525240888E+00 -1.555233197004E+00 9.093687894699E-01 -8.303131272369E-02 -3.226671681155E-01 -2.159445592048E+00 9.803856026875E-01 -2.740434710119E-01 -2.808693817245E+00 -9.069878062841E-01 9.189985761724E+00
 -9.132928474952E-01 -6.226884602135E-01 3.004440560317E-01 1.701065585567E-01 -2.145873429088E+00 -5.223663183573E-01 6.698226614780E-01 -4.407584166985E-01 4.898150397591E-01 1.393345774310E+00 -6.568353319064E-01 7.986903052271E-01 -7.851902694661E-01 3.005559404809E-01 -2.643981882230E-01 -1.971416339363E-01 -8.252592613004E-02 1.663315792086E-01 -1.256077983673E-01 6.107192411723E-01 -1.969183840843E+00 3.560615131258E-01 -7.712017934618E-02 3.223771655167E-01 -2.307966274286E-02 -4.054101941594E+00 4.045750294824E-01 -1.402291877007E+00 3.298696216014E+00 9.800922064010E-01 1.085753909372E+00 -3.410317888060E+00 -3.182611033711E+00 -1.358708819346E+00 2.056954626050E-01 3.406664373491E-01 2.421937303605E-01 -6.976283566214E-01 -8.740218377843E-03 -3.374405013234E+00 -7.147683658487E+00 -1.313486508649E+00 1.729741383251E+00 1.368656472093E+01
 2.900605824004E-01 1.620875759681E+00 1.416640592475E+00 -3.525261072192E+00 -2.591956654840E+00 -1.140432565706E+01 -1.190859862928E+00 -8.700327833368E-01 -1.482726553426E+00 -8.648831298325E-01 2.659570598080E-01 -5.640689555084E-01 -7.024173612167E-01 -6.356343885320E-01 1.436098754861E+00 3.700259433589E-01 -4.038635668854E-01 2.239234493063E-01 1.347927528248E+00 -1.863426533192E-01 1.552682320667E+00 6.563328056751E-01 -5.058808092381E-01 -1.198021720906E+00 5.271434186614E+00 1.542487283757E-01 -2.797442841208E+00 1.213283920959E-01 3.343907200203E+00 -5.952027944893E-01 3.358228930623E+00 -2.000929274532E+00 -3.166331939042E+00 6.808820838309E-01 -7.567227727192E-01 1.484467876383E-01 -5.334014067089E-01 -2.639981576142E-01 -2.326983749986E-01 1.916613319452E+00 -1.143481128070E+00 -3.716709959439E+00 -5.803553624432E+00 3.838355080546E+00 2.015001488880E+01
 -3.297595684200E+00 -2.464167879444E+00 -3.814786443329E+00 -1.868392398174E-01 8.440452425537E-01 -3.696549509514E-01 4.007468762101E-01 -1.207876924743E+00 1.315519645634E+00 3.167334526697E-01 -8.595024027733E-01 1.880995637353E+00 -4.366400028081E+00 1.080442684126E+00 -1.501995296507E+00 -1.518381553146E-01 4.873906942304E-01 -6.348665083338E-01 -3.385302053837E+00 2.208189537370E-01 -2.804767288310E+00 1.160652398001E+00 -9.573259071264E-01 -7.119524481554E-02 -2.748082895719E+00 9.817609792242E-01 1.607237015180E+00 2.521374147502E+00 2.142562951982E+00 8.209668659700E-01 -3.135706518714E-01 -1.665424608830E-01 -8.712740697799E-01 1.217360829210E-01 5.145839120077E-01 5.142675036986E-01 -5.852078463166E+00 -3.734587972049E+00 2.435916628097E+00 4.578972866931E-01 -4.005464943566E-01 -1.026440299008E+00 2.807764077508E+00 2.607979663910E+00 -1.305527042835E+00 1.392365272515E+01
 -2.191743362039E+00 -4.996183411184E+00 -4.469098874876E+00 -6.155061343895E-01 1.920785572864E+00 1.231404569915E-01 -8.471056652522E-01 -3.695689564658E-02 6.308163861175E-01 3.780248968467E+00 1.434807038799E+00 1.821751979807E+00 4.304572704634E-01 3.524294221571E-01 2.964278170521E+00 1.470458787317E+00 3.435479691152E-01 -2.439612590913E-01 2.424895912038E+00 -6.769656694780E+00 -3.100774754094E+00 -3.473281929909E-01 3.769834829570E+00 2.460913086156E+00 -1.499968898343E+00 -2.957053043279E+00 -3.378750213169E+00 -3.771090818219E+00 -2.549713377460E+00 -1.562313815564E+00 2.767795294581E-01 -1.316752854234E+00 -3.031840448419E-01 8.251155574098E-02 -6.923473056739E-01 1.532704186798E-01 -1.802365270495E+00 -1.717105904193E+00 -1.042700711195E-01 7.410318324856E-01 -2.938961595228E+00 2.053949252607E+00 -1.619249967005E+00 5.741474912394E-02 -7.623835142696E-01 1.286311670350E+00 1.650317973167E+01
 -4.635582990442E+00 -4.828261284606E+00 -8.151337939192E+00 -2.447160576049E+00 6.536865165498E-01 -1.257908937371E+00 -1.464850945892E+00 -6.795269663461E-01 -4.391099912753E-01 1.523251008595E+00 -4.272074535282E-02 6.481468256238E-01 -1.016295590172E+00 1.809585391212E+00 -1.167385033973E+00 7.686032447576E-01 -1.586541473201E+00 -9.233570622943E-01 -1.207858726707E+00 -3.966273625340E+00 -5.583931239582E+00 1.418126123995E+00 1.018394677381E+00 7.858660195453E-01 1.481114880742E+00 1.295550213455E-01 -5.541430931768E-02 -3.208542396545E-01 1.321215809627E+00 4.892241319834E-01 1.129293534204E+00 -1.978627649159E-01 1.100260147900E+00 -1.540506806728E+00 -1.186633432009E+00 3.555179009777E-01 2.760579641644E+00 -8.089292030933E-01 -1.318150602428E+00 7.495531657027E-02 1.023593360716E+00 -8.246483908085E+00 -9.708769189192E-01 1.463485911719E-01 2.164653988028E-01 3.153260582293E+00 2.852645851313E+00 2.933469307269E+01
 1.472406281518E-01 -9.405144553984E-01 9.900544256586E-01 -2.369791980380E-01 6.572415689817E-01 2.809819521710E-01 1.452032656549E-01 2.926676563125E-01 8.636838067949E-01 1.018462613662E+00 -9.570855930241E-01 -6.025492772918E-02 -5.783027564534E+00 -6.427598115674E-01 5.909247290948E+00 -1.829162385660E+00 -3.089829843166E+00 -2.530988878329E+00 -3.467663941801E-01 -5.489648756361E-01 2.848547416481E-01 7.034467929727E-01 1.794339974753E-02 -1.115347033309E+00 2.937823599542E-01 -1.293609556766E+00 -4.018906867514E-01 -4.855163905738E+00 -2.297191595915E+00 -4.148013046881E+00 2.508151134175E-01 -8.883323725826E-01 -2.055285985159E-01 -3.475056755390E+00 -2.033944503645E+00 1.824291246893E+00 -4.055852216270E+00 5.090803599370E+00 -6.272398319558E-01 2.391055938850E-01 1.512138866634E+00 4.459092083714E-01 -6.895228921851E-01 7.605010270596E-01 2.298341074988E-01 -5.129943540108E-01 1.176429116229E+00 -2.956475752445E-02 1.993522734414E+01
 -9.295066269140E-01 2.228461578841E-01 -1.847775773789E-01 -1.129560683548E+00 7.059820947247E-01 -3.306649734695E-01 -1.237044219305E+00 4.191310114155E-01 1.125346152394E+00 -4.122502223845E-01 3.938229492616E-01 7.938069295253E-01 -1.069243298551E+00 5.886955033438E-01 9.302668152929E-01 -1.608398891402E+00 -5.834646474923E+00 -4.855202635426E+00 5.095104269214E-01 5.208317190953E-01 -3.128637779293E-01 1.011844335226E+00 7.245517551520E-01 -8.553354789852E-01 -3.449916234535E-01 -1.308857376609E+00 1.348821418119E+00 -2.965938112172E+00 -2.327146281498E+00 -5.696071623596E+00 -6.089149398900E-01 -8.338966705693E-02 1.812416623638E-01 -3.075171641538E+00 -5.565591057454E+00 2.698098331966E+00 4.662126141588E+00 -4.052879961171E+00 -5.759416278848E-01 1.416727613359E+00 -1.044896522380E+00 -3.664969284111E-01 1.733441916838E+00 6.689773400985E-01 -4.061296881636E-01 -2.269719424577E-01 -1.343555282872E-01 1.742833215300E+00 3.884712979218E+00 1.577639287971E+01
 5.243442944236E-02 4.885346672846E-01 2.644506227214E-01 4.672224941637E-01 -6.527888326561E-01 6.211519452460E-01 -1.464478455177E+00 -1.196069895674E+00 -1.226794174056E+00 -1.324652239315E+00 -9.788907443329E-02 1.512713679932E+00 3.688889746538E+00 4.730690141872E-01 -3.630953567707E+00 -3.988221957234E-01 -5.409843492384E+00 -7.581595040513E+00 -5.600886460139E-01 3.330057001252E-01 -1.516889302756E+00 -8.295754694814E-01 -9.226041675163E-01 -7.335763713314E-01 -8.712301359855E-01 2.630470804798E+00 9.181274529986E-02 1.772954578135E+00 -1.165849742337E+00 2.028938447621E+00 -1.785559941644E+00 -5.748722772817E-01 -9.021847579772E-01 8.697198106059E-01 8.690782138730E-01 -2.155077557799E-01 1.030978925471E+00 1.786258059065E+00 -5.612280157816E-01 2.245052835020E+00 -5.978470984804E-01 -1.395388954676E+00 1.244505201924E+00 -4.094320831595E-01 5.992449056659E-01 -1.000626132886E+00 -1.727774141009E+00 1.093099967900E+00 -2.564766953907E+00 5.252367068988E+00 1.196162094522E+01
 -2.730653917560E-01 6.105548303102E-01 4.016340876649E-01 6.426669012633E-03 -8.176336636948E-02 -4.396191977903E-02 -4.586663858923E-01 2.193930421750E+00 1.200221499707E+00 -9.013395362104E-03 5.086437024642E-01 -6.458862531277E-01 4.648603416214E-01 -9.270025582502E-01 -2.242808369051E+00 -1.185254395834E+00 4.762057991457E-01 2.704508697761E-01 -2.630178295583E+00 -2.345152386125E+00 -7.023663733251E-02 -2.768416476217E-01 1.074358148155E+00 3.709853228676E-01 1.203438464423E+00 -1.183694487911E+00 -5.373934860959E-01 -1.583530710528E+00 3.645306593209E+00 -4.295247014098E-01 5.582940348396E-01 8.229625382412E-01 1.407873215244E+00 9.013836048373E-01 -4.252476843832E-01 -5.231324913065E-01 -4.605793051029E+00 -1.825577949769E+00 -3.222901490169E+00 -8.153238633417E-01 -5.914163014234E-02 1.286321160628E+00 6.191165478428E-02 -6.182965919972E-01 -9.101798958011E-01 -8.137356016638E-01 1.022558513851E+00 -3.308284917151E-02 -8.302138104796E-01 7.395315262193E-01 -1.786265980463E-01 1.767388344209E+01
 3.283928381322E-01 1.317051471635E+00 -3.951305809947E-01 6.416050984367E-01 -2.845615410091E-01 1.174629255111E-01 5.585194902468E-01 -6.885237492180E+00 -3.313802340845E+00 1.299997653952E-01 -1.820771424656E+00 1.271841370375E+00 -1.759482397842E-01 3.909565250371E-01 -1.109521312387E+00 4.953787635576E-01 4.132238544622E-01 9.084930059648E-02 -2.315448940877E+00 -6.541917313401E+00 1.134857823327E+00 4.690955574537E-01 -6.773832501157E-01 2.260921683644E-01 -3.621781325612E-01 1.395323076074E+00 -5.180426484047E-01 3.887090089522E+00 -3.865625419942E+00 2.441520567814E+00 -9.223596651826E-02 -8.192226451730E-01 -5.978942156383E-01 -2.244087369017E+00 -5.406785114523E-01 4.263913450756E-01 -5.893825864818E-01 -4.986028839339E-01 -1.505843353664E+00 -2.948241037124E-01 -1.388091289673E+00 6.473183226872E-01 4.120464603440E-01 5.499506906407E-01 1.226519264327E+00 -4.056538267048E-01 -6.486905320675E-01 3.120690102317E+00 4.245125923418E-01 -1.904922700082E-01 1.130028596610E+00 -3.616396697179E+00 2.051758274668E+01
 5.533172397840E-01 9.239214573332E-01 1.261597694244E+00 6.254786844142E-01 -4.104451854535E-01 -6.042565122662E-01 2.067643333021E-01 -2.509365253362E+00 -2.243702904763E+00 -5.554312370698E-01 1.339985124065E+00 -4.132167091550E-01 5.820508590064E-01 -4.694244518859E-01 -2.317352234861E-01 2.029356625051E-01 7.723101769547E-02 8.158084245228E-01 1.063238501186E+00 1.714850077913E+00 -2.449087319480E+00 -9.270748085978E-01 5.513166968686E-01 3.647831562965E-01 1.115630164592E+00 -2.857816253774E+00 2.276444640059E+00 -2.975702234971E+00 2.846484198239E+00 -3.692234469945E-01 -1.217666335610E+00 1.121593644362E+00 1.754972750492E-01 5.201390432224E-01 5.405072208896E-01 -8.256930703632E-01 -3.838509646759E+00 -4.429207869643E-01 -4.487692329965E+00 -1.052125892739E+00 -9.954535512094E-01 -1.000141625911E+00 6.397524452608E-01 5.580155386514E-01 -4.160556067982E-01 1.813338328153E+00 1.637306665324E+00 -7.282758856733E+00 -1.000705852590E-01 -1.079534882295E-01 -3.209817337442E-01 2.718457684915E+00 -3.528071828317E+00 1.676035644773E+01