#BIOSYM hessian 1
@Type: Hessian Update
@Units
 distance: 	A
 energy: 	Kcal/Mol
#header
@natom 4

#label
L1      L2      L3      L4

#element
Li Li Li Li

#matrix
12
 1.572678917573E+03
 2.014043646176E+02 1.389354894670E+03
 1.153732533077E+01 -5.823070948149E+02 1.817179814924E+03
 6.223885360672E+02 -1.727785077956E+02 -1.339495841991E+00 7.078029057366E+02
 -4.069979696938E+02 7.976850660189E+01 -1.739281588070E+01 2.596154228133E+02 1.575978498177E+03
 -1.729994313225E+02 1.892836348514E+01 -1.798913924374E+01 -1.342761886231E+02 -4.355028125198E+02 1.884687322950E+03
 -1.389853201491E+02 -2.390738895127E+02 -2.043430323297E+02 5.400918068732E+02 3.819457377819E+02 3.980305176031E+02 1.226950101328E+03
 7.552451618186E+01 5.626851443027E+02 4.256418377130E+02 -1.321564869304E+02 1.057372816746E+02 5.920532568609E+01 -6.448686751295E+01 1.321140941800E+03
 2.621497737921E+01 3.606005205746E+02 2.683715221289E+02 3.037496715099E+01 1.449734985213E+02 1.261031556465E+02 -2.594368597332E+02 -6.868674031254E+02 1.680018491066E+03
 1.847639872294E+02 2.104480326906E+02 1.941452028408E+02 3.705628720438E+02 -2.345631909012E+02 -9.075489765754E+01 6.127895326686E+02 1.211188382617E+02 2.028469152032E+02 1.072729728779E+03
 1.300690888941E+02 2.090375751456E+02 1.740580729823E+02 4.531957191266E+01 4.793618342676E+02 3.573691233487E+02 -7.838498075611E+01 2.512827529436E+02 1.812933840298E+02 -9.700368005087E+01 1.301163958364E+03
 1.352471286127E+02 2.027782107548E+02 1.732839229116E+02 1.052407173141E+02 3.079221298796E+02 2.480447813685E+02 6.574937446000E+01 2.020202397260E+02 1.663529518797E+02 -3.062372203869E+02 -7.127205803605E+02 1.653164464561E+03

