#BIOSYM hessian 1
@Type: Hessian Update
@Units
 distance: 	A
 energy: 	Kcal/Mol
#header
@natom 19

#label
L1      L2      L3      L4      L5      L6      L7      L8      L9      L10     L11     L12     L13     L14     L15     L16     L17     L18     L19

#element
Li Li Li Li Li Li Li Li Li Li Li Li Li Li Li Li Li Li Li

#matrix
57
 2.227223545875E+03
 -9.002352085789E-01 2.239937346788E+03
 5.736466866337E+00 2.403724253210E+00 2.233614171533E+03
 2.792304070226E+01 5.722796223820E+00 -2.100564875302E+01 2.165984528970E+03
 1.251555071904E+00 2.237389206821E-01 -8.639073609403E-01 -3.219600809165E+00 2.240709118760E+03
 -1.136940884282E+01 -5.755375013208E+00 1.668826830591E+01 4.604199257983E+01 1.892482822198E+00 2.202161575571E+03
 7.302505479942E+00 2.944899514671E+00 -8.971080706455E+00 -2.629074617703E+01 -1.066546748993E+00 2.082407186931E+01 2.229966219020E+03
 3.865108011899E+01 7.454626410623E+00 -2.799926282604E+01 -1.016130045429E+02 -4.359282559210E+00 6.130701880932E+01 -3.478336604098E+01 2.103093624453E+03
 -1.128978185685E+01 -1.198955269795E+00 5.880660060673E+00 2.523820629480E+01 1.104464738993E+00 -1.231308731417E+01 7.184953718056E+00 3.442580054864E+01 2.231508161310E+03
 -4.578415181809E-01 -1.702810299299E+00 4.192123468671E+00 8.565454322216E+00 3.198872488183E-01 -1.026130527026E+01 5.070954464556E+00 1.090436779490E+01 -1.220500892423E+00 2.237551176918E+03
 -2.638107544081E+01 -5.555240291809E+00 2.023699523173E+01 7.146496476881E+01 3.055272681360E+00 -4.460696663071E+01 2.508413909573E+01 9.667089465212E+01 -2.369604245203E+01 -8.347050416382E+00 2.172819656253E+03
 -7.908583070959E+00 -1.512253314469E+01 3.805993354175E+01 8.260541412183E+01 3.193263139552E+00 -9.190078772864E+01 4.712466339613E+01 1.071350678107E+02 -1.491244549593E+01 -2.908547902834E+01 -8.118869140320E+01 1.987081312490E+03
 -1.124209856370E+01 -4.917376995431E+00 1.468267813752E+01 4.202079105112E+01 1.737298236985E+00 -3.383041147277E+01 1.823858563454E+01 5.603413161543E+01 -1.161554067028E+01 -8.596437304294E+00 -4.052719516506E+01 -7.792513943035E+01 2.211145785025E+03
 -2.148395739524E+01 -6.254406622452E+00 2.055561398193E+01 6.602072648919E+01 2.790468670298E+00 -4.620860894723E+01 2.569314921509E+01 8.896358505679E+01 -2.052755789352E+01 -1.025620265766E+01 -6.338050535459E+01 -9.506772632830E+01 -4.137933200557E+01 2.179595080936E+03
 7.260809931139E+00 3.593538775205E+00 -1.045990054898E+01 -2.904478360434E+01 -1.193201702032E+00 2.424761524158E+01 -1.304521766234E+01 -3.867582154356E+01 7.812723538808E+00 6.395224424662E+00 2.812106229518E+01 5.734215802931E+01 2.122105497552E+01 2.906233186630E+01 2.225651002172E+03
 -2.006018232466E+00 -3.900303427635E+00 9.817286687546E+00 2.124524826550E+01 8.198721352989E-01 -2.372166844918E+01 1.211309317702E+01 2.750609647340E+01 -3.769995777390E+00 -7.493183262760E+00 -2.084292645009E+01 -6.555689013704E+01 -2.008768237209E+01 -2.449934804326E+01 1.480238671566E+01 2.223920275093E+03
 2.285908895902E+01 5.424170958885E+00 -1.894917244000E+01 -6.461588315497E+01 -2.765043034407E+00 4.194377008332E+01 -2.374627952965E+01 -8.750781766933E+01 2.112925622391E+01 8.474909938432E+00 6.186137073852E+01 8.007175559929E+01 3.797706083095E+01 5.817852166393E+01 -2.643079283827E+01 2.061584038423E+01 2.184616337435E+03
 1.460139045599E+01 4.850220343795E-01 -5.007468183356E+00 -2.772453783816E+01 -1.263668984843E+00 9.355090235149E+00 -6.439805825649E+00 -3.864611033731E+01 1.183176470233E+01 -4.584179515806E-01 2.610524499377E+01 2.209405286931E-01 9.681604921813E+00 2.028864708435E+01 -6.021036043064E+00 1.650050742560E-02 -2.227533281829E+01 2.224930216084E+03
 1.524788144527E+01 1.000879015822E+01 -2.786939171590E+01 -7.223689663923E+01 -2.911822167578E+00 6.553857016930E+01 -3.443762094976E+01 -9.529091735646E+01 1.756206554737E+01 1.824196853153E+01 6.997671897400E+01 1.630407122084E+02 5.669042996051E+01 7.511854985156E+01 -4.101091301024E+01 4.205074893597E+01 -6.688692235894E+01 -1.124492561393E+01 2.128576122981E+03
 1.919036874402E+01 7.214056325585E+00 -2.225877744510E+01 -6.641839439517E+01 -2.758520645649E+00 5.095783512469E+01 -2.759246370243E+01 -8.876882265238E+01 1.909982630796E+01 1.234615005172E+01 6.383952753950E+01 1.131316912190E+02 4.499340824268E+01 6.403707574262E+01 -3.198344694486E+01 2.914579112398E+01 -5.951231959183E+01 -1.719919669613E+01 -8.440200293703E+01 2.172237643120E+03
 -1.271958837767E+01 -3.699271284316E+00 1.219502871758E+01 3.910514220447E+01 1.643947648119E+00 -2.751857684282E+01 1.505517064596E+01 5.248563888994E+01 -1.195484346177E+01 -6.029292020576E+00 -3.736272062301E+01 -5.668861848804E+01 -2.454800447105E+01 -3.636429644317E+01 1.730129830630E+01 -1.457285229139E+01 3.451766805277E+01 1.200610298801E+01 4.454673222268E+01 3.791687088917E+01 2.219407693558E+03
 -3.011003439340E+01 3.739655180806E+00 -9.063768840897E-01 3.568018174167E+01 1.792545272166E+00 8.149887105929E+00 -8.455749338432E-01 5.199044537545E+01 -2.143514208429E+01 1.034514075651E+01 -3.227141826500E+01 7.979857632171E+01 3.111980566684E+00 -1.519688208398E+01 -4.682055021339E+00 2.075120864634E+01 2.438787282950E+01 3.549769028069E+01 -2.670234635313E+01 2.407922921551E+00 -8.659767625660E+00 2.136537959048E+03
 4.055887615864E+00 -2.202356905260E+00 4.176310606946E+00 2.939101851843E+00 4.149168380053E-02 -1.110568619618E+01 5.036740383447E+00 2.782375340155E+00 1.997763163909E+00 -4.732551483764E+00 -3.258662689236E+00 -3.995158181578E+01 -8.760344082624E+00 -7.619643791023E+00 6.860781815244E+00 -1.032702121637E+01 4.532863905626E+00 -5.743956456478E+00 2.159098440982E+01 1.155913024990E+01 -4.539192901839E+00 2.552634904730E+01 2.232467680599E+03
 2.186084672193E+01 -2.474543934186E+00 8.907911521841E-02 -2.699210281894E+01 -1.343201236232E+00 -4.536558102551E+00 -1.117405200762E-01 -3.916084518600E+01 1.572311823148E+01 -7.032915710622E+00 2.453082306594E+01 -5.389412442182E+01 -1.094165954237E+00 1.237719399449E+01 2.537720181757E+00 -1.401761132219E+01 -1.879295423899E+01 -2.563726285211E+01 1.686344259851E+01 -3.422798457277E+00 7.107541058227E+00 7.417385864179E+01 -1.784148840919E+01 2.188060941326E+03
 -5.639195810314E+01 -2.267745608738E+01 6.895238385929E+01 2.019217796292E+02 8.351249701696E+00 -1.585134049831E+02 8.531762412871E+01 2.693058871817E+02 -5.682541979623E+01 -3.917128713324E+01 -1.941588087578E+02 -3.580239616142E+02 -1.394944360543E+02 -1.966313730666E+02 9.944381911466E+01 -9.222827193873E+01 1.817079065770E+02 4.969880412436E+01 2.637157005664E+02 2.119561824194E+02 -1.163549690847E+02 3.044916481406E+00 -3.827985504716E+01 3.138151977218E+00 1.585048819327E+03
 5.125545583233E+00 -2.584012316597E+00 4.799645686978E+00 2.716372709234E+00 3.150762084861E-02 -1.271454391689E+01 5.898906905842E+00 2.410805407897E+00 2.565482665597E+00 -5.585532939506E+00 -3.234540445883E+00 -4.670372085276E+01 -9.993737398618E+00 -8.378361386913E+00 7.863419532376E+00 -1.208034120451E+01 4.680959667445E+00 -7.160651289750E+00 2.503441414067E+01 1.314138941939E+01 -5.059299049641E+00 3.072487404987E+01 -9.974654271913E+00 -2.150580736262E+01 -4.372566672218E+01 2.229073971732E+03
 -1.239904798678E+01 -4.483324491037E+00 1.394554259199E+01 4.216791487853E+01 1.745001283429E+00 -3.192972656515E+01 1.727588258108E+01 5.636242845136E+01 -1.227428460577E+01 -7.645740488406E+00 -4.050537362632E+01 -7.016098476844E+01 -2.825681984941E+01 -4.041588610901E+01 2.003469331244E+01 -1.808463077239E+01 3.771105206126E+01 1.122964169939E+01 5.272744413455E+01 4.313713864312E+01 -2.394167414592E+01 -2.743373065219E+00 -6.965434524807E+00 3.026506314806E+00 -1.331602588936E+02 -7.964767674471E+00 2.213774616232E+03
 6.724791933622E+00 3.376590839062E+00 -9.812980609694E+00 -2.703496511618E+01 -1.124049676758E+00 2.264032892312E+01 -1.229422440029E+01 -3.609028374582E+01 7.265585698960E+00 6.000981421980E+00 2.622316184848E+01 5.369851971773E+01 1.980462137468E+01 2.710461534958E+01 -1.420355078956E+01 1.385475564850E+01 -2.458871333842E+01 -5.532562660645E+00 -3.837763399989E+01 -2.988883086705E+01 1.615216328774E+01 -4.574788800895E+00 6.469336051035E+00 2.519289298652E+00 9.295623913326E+01 7.322297667348E+00 1.879705938178E+01 2.227667690350E+03
 -2.390865154126E+00 3.496117431561E-01 -1.934165324109E-01 2.631692859157E+00 1.278256088825E-01 8.797319902709E-01 -2.788704967002E-01 3.790766214574E+00 -1.628339756821E+00 9.271903213397E-01 -2.307360855229E+00 7.050373069066E+00 4.594684031741E-01 -9.656734491586E-01 -5.231902376617E-01 1.837625629544E+00 1.755350438912E+00 2.853007776615E+00 -2.610902068196E+00 -1.448668059287E-01 -5.051070692054E-01 -8.525158383829E+00 2.162351734387E+00 6.060130146760E+00 1.331390652983E+00 2.549732345508E+00 1.504028389065E-02 -4.665733504884E-01 2.240170076932E+03
 -2.736293202466E+00 3.640899178728E+00 -7.947430293950E+00 -1.184530865596E+01 -3.832790098694E-01 2.019947728844E+01 -9.642186496597E+00 -1.433632699032E+01 -1.743873931706E-01 7.447121343481E+00 1.190225668057E+01 6.401735964856E+01 1.652215664933E+01 1.742069700847E+01 -1.253091535449E+01 1.653915998361E+01 -1.301367136336E+01 5.086612441312E+00 -3.743023515319E+01 -2.290564286055E+01 1.033757418606E+01 -3.174106364919E+01 1.192434564472E+01 2.196834432344E+01 7.398290993467E+01 1.417225210335E+01 1.398230213020E+01 -1.183571900069E+01 -2.752874464399E+00 2.223112662590E+03
 -9.156675411460E-01 1.995128077411E+00 -4.512314462611E+00 -7.524267129149E+00 -2.553253549965E-01 1.135935111932E+01 -5.460337452277E+00 -9.271496645614E+00 3.445951321567E-01 4.021709951608E+00 7.466956457618E+00 3.483346650341E+01 9.362079838488E+00 1.027032795124E+01 -7.053629827590E+00 8.994002748515E+00 -7.954632080158E+00 2.138428628980E+00 -2.078002790261E+01 -1.311398793637E+01 6.074579681955E+00 -1.589270666944E+01 6.255002710556E+00 1.095583796418E+01 4.212112276565E+01 7.438921861501E+00 8.026505001326E+00 -6.668788677908E+00 -1.395822111689E+00 -9.429691780826E+00 2.235813124577E+03
 -2.855434980194E+01 -6.557447198197E-01 9.122217098478E+00 5.291253762078E+01 2.415802041512E+00 -1.671544140901E+01 1.162568531070E+01 7.375783295357E+01 -2.282739051461E+01 1.501994828667E+00 -4.962484714439E+01 4.227950217958E+00 -1.754933917527E+01 -3.810897288128E+01 1.078968087975E+01 1.199334727427E+00 4.228854125065E+01 3.128730620508E+01 1.897932313353E+01 3.161022499857E+01 -2.243348055977E+01 -7.110905760004E+01 1.205414513411E+01 5.130008911079E+01 -9.068145106849E+01 1.491759754236E+01 -2.071701346537E+01 9.908164753465E+00 -5.698190199400E+00 -1.123458790217E+01 -4.890011808124E+00 2.179338995302E+03
 -1.195886085899E+01 3.010176889946E-01 2.440155503129E+00 1.953142759308E+01 9.167127734818E-01 -3.579656400008E+00 3.224491993996E+00 2.760336937694E+01 -9.293221439306E+00 1.754057681922E+00 -1.823185323725E+01 1.174455909283E+01 -4.513207523686E+00 -1.266471838801E+01 2.390045386558E+00 3.067868461605E+00 1.504881137519E+01 1.343135925960E+01 1.833657772305E+00 9.208622371757E+00 -7.476142807366E+00 -3.373204648334E+01 6.728788688051E+00 2.418596177503E+01 -2.514586153645E+01 8.241363097456E+00 -6.184628792429E+00 2.149052796025E+00 -2.741304940772E+00 -7.304382721414E+00 -3.443497950972E+00 -2.662255895576E+01 2.228950577390E+03
 7.675322056521E+00 3.558671130237E-01 -2.890617669192E+00 -1.505727325635E+01 -6.761989797576E-01 5.610195000523E+00 -3.597633426986E+00 -2.081277729467E+01 6.172021458815E+00 -6.083242189070E-02 1.410289474887E+01 2.101081660399E+00 5.623559548367E+00 1.130664670768E+01 -3.594225383671E+00 5.021168736754E-01 -1.222730577092E+01 -8.307880961781E+00 -7.043671120827E+00 -9.765924908414E+00 6.612402711293E+00 1.779026397189E+01 -2.705401395623E+00 -1.288709539072E+01 2.839775009300E+01 -3.352134684726E+00 6.349906175783E+00 -3.325852436444E+00 1.401399092851E+00 2.200370347186E+00 8.801440977149E-01 1.623362779083E+01 6.917821331598E+00 2.236539958118E+03
 4.304908103858E+00 -1.603058145317E+00 2.663082523916E+00 -2.600778382760E-01 -7.288479786790E-02 -7.351394091524E+00 3.303461323404E+00 -1.194483402187E+00 2.402786453553E+00 -3.595549762029E+00 -2.392066638417E-01 -2.950050181346E+01 -5.644120645324E+00 -3.831569275695E+00 4.525116010114E+00 -7.651027194727E+00 1.367729820477E+00 -5.679344708882E+00 1.506090578792E+01 7.105199526881E+00 -2.386205988910E+00 2.193159342436E+01 -6.733229644119E+00 -1.541193682958E+01 -2.421160835273E+01 -7.987785578508E+00 -4.211267761607E+00 4.253896163397E+00 1.814085988837E+00 9.330334542760E+00 4.861247704209E+00 1.165698716785E+01 6.183503170726E+00 -2.694353787264E+00 2.235404894773E+03
 -1.289380446318E+01 1.139522579676E-01 3.148357264753E+00 2.201770779258E+01 1.022371983095E+00 -5.157436239126E+00 4.040636553084E+00 3.090690685433E+01 -1.005135530235E+01 1.493955571850E+00 -2.053487536183E+01 8.893064640592E+00 -5.913220203241E+00 -1.488755432099E+01 3.384758112541E+00 2.350872449370E+00 1.721161266659E+01 1.435530431079E+01 4.233451234533E+00 1.140197213742E+01 -8.730285754895E+00 -3.481377944068E+01 6.630683553902E+00 2.501626917103E+01 -3.177835473942E+01 8.138478101761E+00 -7.595574096086E+00 3.065703204708E+00 -2.810047979369E+00 -6.908561379641E+00 -3.197976526410E+00 -2.833943075084E+01 -1.254314192569E+01 7.388183924168E+00 6.154846749057E+00 2.227601565839E+03
 -1.264528198592E+00 1.073560788178E+00 -2.232738199594E+00 -2.660970062076E+00 -7.936455068124E-02 5.736383974495E+00 -2.693173714129E+00 -3.073303498235E+00 -4.437899971642E-01 2.226532292571E+00 2.719335560332E+00 1.909833672260E+01 4.615135471833E+00 4.568359765590E+00 -3.558922040278E+00 4.926362851768E+00 -3.173934066747E+00 2.015323246953E+00 -1.081130393783E+01 -6.294436800785E+00 2.695369173101E+00 -1.059297826102E+01 3.734995698738E+00 7.365045135837E+00 2.050052865990E+01 4.418038498210E+00 3.854899918113E+00 -3.325270609011E+00 -9.006795066083E-01 -5.468387526813E+00 -2.892724153434E+00 -4.342765926527E+00 -2.599350403278E+00 9.227032921265E-01 2.963404655137E+00 -2.524024353083E+00 2.239166781630E+03
 3.459327735442E+00 1.316200780747E+00 -4.057432849947E+00 -1.203334570472E+01 -5.009489558994E-01 9.288878527712E+00 -5.010035484453E+00 -1.606390700437E+01 3.419793511668E+00 2.247626880794E+00 1.154725334359E+01 2.069501266040E+01 8.182338104529E+00 1.163627021987E+01 -5.831453285397E+00 5.324387153356E+00 -1.079266400963E+01 -3.086511125718E+00 -1.537707195190E+01 -1.246853207345E+01 6.868356055501E+00 2.846266326589E-01 2.131103528855E+00 -5.154258499201E-01 3.851944645053E+01 2.416213786583E+00 7.855806545393E+00 -5.433107521821E+00 -3.772214819300E-02 -4.209098690794E+00 -2.406612246505E+00 5.649919846807E+00 1.634462094095E+00 -1.745241470089E+00 1.327789300233E+00 2.019531721551E+00 -1.148309248159E+00 2.238586854974E+03
 3.929032114671E-02 4.743872734968E+00 -1.131330563833E+01 -2.166757598644E+01 -7.993683364060E-01 2.783814787185E+01 -1.386291967254E+01 -2.752867800799E+01 2.641024973668E+00 9.341288265897E+00 2.139316744675E+01 8.120666826449E+01 2.326052417587E+01 2.695634862332E+01 -1.733662512508E+01 2.096607024896E+01 -2.181703152430E+01 2.640099510176E+00 -5.018438806470E+01 -3.319739014100E+01 1.600862094388E+01 -3.170270962474E+01 1.374889649155E+01 2.169043923780E+01 1.058247230338E+02 1.618844441539E+01 2.049418503711E+01 -1.626501173173E+01 -2.773940338366E+00 -2.131746057726E+01 -1.148130853529E+01 -6.743222139196E+00 -6.047341765624E+00 7.875610270854E-01 1.045000710391E+01 -5.326184851623E+00 -6.436700948906E+00 -6.072236540436E+00 2.214442226623E+03
 3.165148768278E+01 1.648161628967E+00 -1.229091012341E+01 -6.290312202258E+01 -2.825942388818E+00 2.396191021691E+01 -1.555858043466E+01 -8.713416571189E+01 2.585724076076E+01 1.716865175955E-01 5.921583676902E+01 1.115126897914E+01 2.401495069607E+01 4.750356247659E+01 -1.533317263162E+01 2.773998683752E+00 -5.116534297661E+01 -3.417491058549E+01 -3.084152065003E+01 -4.152570955404E+01 2.801648202523E+01 7.267138335106E+01 -1.067852524432E+01 -5.265720186345E+01 1.212129014855E+02 -1.331912264209E+01 2.690652642615E+01 -1.421864216755E+01 5.757958867247E+00 8.329028935418E+00 3.204279056787E+00 6.689814775490E+01 2.833743843750E+01 -1.785365317595E+01 -1.088668530296E+01 3.040490573489E+01 3.533649270690E+00 -7.467403645423E+00 2.315954555046E+00 2.167163630308E+03
 -3.108492550389E+01 -8.019182564062E+00 2.732280478840E+01 9.089672892962E+01 3.852697091309E+00 -6.104758866735E+01 3.398340829192E+01 1.225819785706E+02 -2.891376226124E+01 -1.277381284009E+01 -8.692096911102E+01 -1.204963543181E+02 -5.492235996078E+01 -8.293921478144E+01 3.842258169983E+01 -3.100531132923E+01 7.958432887802E+01 2.993579771182E+01 9.794960355980E+01 8.550553331454E+01 -4.906628055656E+01 -2.846962055974E+01 -8.084040691253E+00 2.235679437467E+01 -2.616281838077E+02 -8.762067419296E+00 -5.405365897672E+01 3.585937209196E+01 -1.911700176017E+00 2.061279931374E+01 1.236172289743E+01 -5.647850890921E+01 -1.961788304583E+01 1.644159849641E+01 -3.423089302599E+00 -2.261346713113E+01 5.215237930861E+00 1.550946413790E+01 3.335787957798E+01 6.912183412157E+01 2.128067113632E+03
 8.923534896381E+00 1.490445742592E+00 -5.916511081387E+00 -2.237569439822E+01 -9.718898297158E-01 1.275155748354E+01 -7.392920684262E+00 -3.047715519935E+01 7.835447921648E+00 2.058508663630E+00 2.127662851926E+01 2.066310510493E+01 1.176953696378E+01 1.919033700352E+01 -8.063302543995E+00 5.299107456273E+00 -1.909804067769E+01 -9.047971140313E+00 -1.950965967036E+01 -1.885414290947E+01 1.133284921818E+01 1.360726440676E+01 -3.945157958374E-02 -1.013588053706E+01 5.695026134005E+01 -2.851490122736E-01 1.202678635457E+01 -7.481866219727E+00 1.032569781970E+00 -2.274443160638E+00 -1.588106992288E+00 1.736472501508E+01 6.670475866572E+00 -4.851830471924E+00 -8.093853586513E-01 7.398356841802E+00 -3.826784700540E-01 -3.403896026575E+00 -5.042618154673E+00 -2.025760914382E+01 2.665842200203E+01 2.234065747002E+03
 -4.200417641458E+00 -3.894330438407E+00 1.037908271728E+01 2.500927997647E+01 1.002987209726E+00 -2.458910173471E+01 1.290926667304E+01 3.288463434870E+01 -5.542775272846E+00 -7.269328168069E+00 -2.442206182043E+01 -6.405401326010E+01 -2.110777841303E+01 -2.704162487648E+01 1.537811570338E+01 -1.653587572849E+01 2.353601716304E+01 2.445844002079E+00 4.283658506474E+01 3.114351586437E+01 -1.611130751689E+01 1.478569042933E+01 -9.217695240984E+00 -9.737235584931E+00 -9.784199635280E+01 -1.065951865220E+01 -1.944210778399E+01 1.433235890727E+01 1.330016486629E+00 1.541826348274E+01 8.489909257429E+00 -3.633239853088E+00 9.451971944879E-01 1.782058870670E+00 -6.581482500782E+00 9.563956851500E-02 4.502099404389E+00 5.677574486900E+00 2.009326943071E+01 7.987661149647E+00 -3.492560721462E+01 6.564476860048E+00 2.224347802606E+03
 -2.227441896844E+01 -7.898568138667E+00 2.469997245104E+01 7.494887677452E+01 3.120292040747E+00 -5.637002270557E+01 3.063544323121E+01 1.003055486829E+02 -2.192475352783E+01 -1.340175771698E+01 -7.198728862126E+01 -1.231994589496E+02 -4.991279893068E+01 -7.164611416944E+01 3.539096211277E+01 -3.173914673768E+01 6.691740552782E+01 2.023758955918E+01 9.296326116551E+01 7.632901466552E+01 -4.242676243320E+01 -5.990556349143E+00 -1.204108548584E+01 6.159839671506E+00 -2.354896726679E+02 -1.365088189493E+01 -4.800948902047E+01 3.308989929252E+01 -1.046947059765E-01 2.444378006618E+01 1.406650019396E+01 -3.739060791270E+01 -1.130031927186E+01 1.142234419941E+01 -7.198282402749E+00 -1.378272180689E+01 6.669992897720E+00 1.387420835440E+01 3.589608307006E+01 4.844016258971E+01 -9.593262098946E+01 2.139204959057E+01 -3.415573253235E+01 2.155829482361E+03
 1.209535361777E+01 9.986988763652E+00 -2.695419521776E+01 -6.658581269563E+01 -2.661051508414E+00 6.381785614155E+01 -3.343789347265E+01 -8.758397398276E+01 1.524319067946E+01 1.853650063263E+01 6.484857291501E+01 1.639336518371E+02 5.493129127593E+01 7.108088241274E+01 -3.990471375551E+01 4.232460463733E+01 -6.235923818249E+01 -7.767653701657E+00 -1.105978838615E+02 -8.123267155382E+01 4.230571335523E+01 -3.456241448528E+01 2.303144339386E+01 2.254359879399E+01 2.547874238303E+02 2.674293134938E+01 5.063569237827E+01 -3.733825533199E+01 -3.203558924962E+00 -3.886432710152E+01 -2.144142402630E+01 1.223278256366E+01 -1.146318071722E+00 -5.315800433720E+00 1.634396621647E+01 1.124732180992E+00 -1.135907955572E+01 -1.482890237979E+01 -5.114152091755E+01 -2.353191635021E+01 9.207197596672E+01 -1.766433407654E+01 4.253365162837E+01 8.917920983784E+01 2.131299784192E+03
 5.261043901616E+00 2.000791619877E+00 -6.167112437002E+00 -1.830054222241E+01 -7.612249335240E-01 1.412225746941E+01 -7.616301383339E+00 -2.442993285675E+01 5.205360115847E+00 3.418209626693E+00 1.756326973056E+01 3.145882579608E+01 1.244248533174E+01 1.769331098359E+01 -8.865245074107E+00 8.094971716013E+00 -1.641377598878E+01 -4.695946124682E+00 -2.337983125119E+01 -1.895935049931E+01 1.044653916128E+01 4.438998389417E-01 3.238697210037E+00 -7.914370550945E-01 5.857295165003E+01 3.675876995060E+00 1.194050012517E+01 -8.264879710475E+00 -5.768417205913E-02 -6.395342885897E+00 -3.656546478143E+00 8.598474679400E+00 2.487888375744E+00 -2.656178596792E+00 2.016502044284E+00 3.075749793412E+00 -1.747264646177E+00 -3.436924867358E+00 -9.231080951776E+00 -1.135768378788E+01 2.358477586653E+01 -5.178511763274E+00 8.634276069600E+00 2.109532640980E+01 -2.254340392599E+01 2.235618070108E+03
 1.907079736276E+01 5.009395440419E+00 -1.697680466787E+01 -5.620116760806E+01 -2.374641516271E+00 3.802716664089E+01 -2.107453216405E+01 -7.570733964311E+01 1.776526202282E+01 8.014143723977E+00 5.372363432955E+01 7.557673979263E+01 3.416572202151E+01 5.142902952853E+01 -2.392499591882E+01 1.944663262466E+01 -4.927828610335E+01 -1.831875698176E+01 -6.108491808861E+01 -5.310812789203E+01 3.040489503643E+01 1.680144299274E+01 5.230929164502E+00 -1.326396993499E+01 1.625713590189E+02 5.729805497002E+00 3.354280827753E+01 -2.235980332978E+01 1.099920916611E+00 -1.305021863839E+01 -7.795831711237E+00 3.451003138665E+01 1.191893568742E+01 -1.006108602256E+01 2.324299882437E+00 1.376689691726E+01 -3.331051661864E+00 -9.636025287598E+00 -2.098880695256E+01 -4.233720705890E+01 6.983590037858E+01 -1.645804165017E+01 2.185145067846E+01 5.955129796784E+01 -5.752154535196E+01 -1.465207650936E+01 2.197605111238E+03
 1.265745710653E+01 4.527312460822E+00 -1.413226590153E+01 -4.276471624529E+01 -1.779701894422E+00 3.226578803755E+01 -1.751610082850E+01 -5.721223848825E+01 1.246733272923E+01 7.688106981176E+00 4.107030761268E+01 7.069055111496E+01 2.855243594229E+01 4.093718556025E+01 -2.025799915201E+01 1.820851786941E+01 -3.820393736609E+01 -1.147766589817E+01 -5.323844325062E+01 -4.364324479375E+01 2.423324213122E+01 3.125568332115E+00 6.955924392591E+00 -3.309772658311E+00 1.346722679305E+02 7.889969188110E+00 2.745241586987E+01 -1.893663367687E+01 3.466003033956E-02 -1.406823375409E+01 -8.088601299927E+00 2.118261342549E+01 6.369756926010E+00 -6.478748706716E+00 4.181678778853E+00 7.781875928760E+00 -3.840225239902E+00 -7.931240158382E+00 -2.061446442946E+01 -2.750219093916E+01 5.478221909448E+01 -1.219266446332E+01 1.957511805787E+01 4.860369841529E+01 -5.110360577574E+01 -1.205957914138E+01 -3.400903074472E+01 2.213059986658E+03
 7.638191979511E+00 1.976945660316E+00 -6.729213248457E+00 -2.233473486057E+01 -9.518431654041E-01 1.498917064165E+01 -8.405441821914E+00 -3.017124108741E+01 7.128441716973E+00 3.149438592707E+00 2.138942759448E+01 2.959911680500E+01 1.349354133003E+01 2.037786721240E+01 -9.439936169817E+00 7.617443651493E+00 -1.954140216484E+01 -7.348059576614E+00 -2.408928291512E+01 -2.103045986941E+01 1.207535222620E+01 7.014660917396E+00 1.993430088940E+00 -5.503676519857E+00 6.435975411822E+01 2.125094304896E+00 1.331709335200E+01 -8.777970428037E+00 4.870551053095E-01 -5.093910754966E+00 -3.058665686279E+00 1.387725614109E+01 4.814107079423E+00 -4.048561390367E+00 8.293600077375E-01 5.553551782036E+00 -1.279225991240E+00 -3.811690418882E+00 -8.206633096999E+00 -1.700529815159E+01 2.773815281871E+01 -6.548038411994E+00 8.562125792964E+00 2.360108165976E+01 -2.262374227142E+01 -5.797621100376E+00 -1.718741193387E+01 -1.347671448052E+01 2.234035901569E+03
 6.756102847441E+00 4.311257796484E+00 -1.204972563297E+01 -3.142433820626E+01 -1.272658740559E+00 2.826455098018E+01 -1.493699777584E+01 -4.153661957263E+01 7.750414164805E+00 7.843216513039E+00 3.047084922819E+01 7.000080805603E+01 2.448691394369E+01 3.254670963724E+01 -1.769259556859E+01 1.805920959547E+01 -2.903478389664E+01 -5.051024852428E+00 -4.839928222346E+01 -3.651679866552E+01 1.933084063618E+01 -1.092227243705E+01 9.196927959166E+00 6.852747385226E+00 1.140556585447E+02 1.062888393623E+01 2.282992863512E+01 -1.653616479311E+01 -1.064046156410E+00 -1.602398420247E+01 -8.910813537009E+00 8.609526317535E+00 9.753520193598E-01 -3.158130468719E+00 6.370214631077E+00 2.029317746238E+00 -4.617335716039E+00 -6.653562355212E+00 -2.152532438708E+01 -1.375538327156E+01 4.252490470553E+01 -8.512166793980E+00 1.841656590252E+01 4.024177706042E+01 -4.760128832176E+01 -1.011665042441E+01 -2.652360347962E+01 -2.304505789788E+01 -1.044927787192E+01 2.219987207790E+03
 -7.293363557697E+00 -6.460525456638E+00 1.731520946843E+01 4.223592056982E+01 1.664462823643E+00 -4.126433674995E+01 2.128139586420E+01 5.523248482656E+01 -9.283580518416E+00 -1.202751548375E+01 -4.099467977632E+01 -1.068836182960E+02 -3.538592533997E+01 -4.550277811986E+01 2.577884427129E+01 -2.757386850900E+01 3.976438057805E+01 4.441819857988E+00 7.149648585330E+01 5.212273337362E+01 -2.695372928147E+01 2.411538906585E+01 -1.520805149742E+01 -1.582201496796E+01 -1.635875006522E+02 -1.780112522707E+01 -3.242250212807E+01 2.421020873647E+01 2.274555541414E+00 2.542792030970E+01 1.397921068841E+01 -6.655630801652E+00 1.271648050196E+00 3.065137438096E+00 -1.094961243062E+01 -1.271702208109E-01 7.469072285986E+00 9.512075669392E+00 3.337719905075E+01 1.385338311990E+01 -5.863476041228E+01 1.112485942713E+01 -2.767715060419E+01 -5.715503627438E+01 7.108295002541E+01 1.445897888006E+01 3.660972328945E+01 3.275368652272E+01 1.444743502709E+01 3.080195756782E+01 2.194864769132E+03
 -9.456845823838E+00 -2.885342631284E+00 9.380985969271E+00 2.972502755127E+01 1.240684694595E+00 -2.128504957023E+01 1.156589389721E+01 3.981899827232E+01 -8.974871507420E+00 -4.759601514591E+00 -2.841351200326E+01 -4.453576813118E+01 -1.894766984272E+01 -2.783283300153E+01 1.336928043557E+01 -1.145745207830E+01 2.632729883232E+01 8.857252812979E+00 3.459310853638E+01 2.916489448357E+01 -1.641508910657E+01 -5.518428393307E+00 -3.775809315748E+00 4.656895302951E+00 -8.961760896292E+01 -4.272093334497E+00 -1.836660820878E+01 1.252742906111E+01 -2.801155045331E-01 8.284809167122E+00 4.834948303018E+00 -1.650016955268E+01 -5.387880101362E+00 4.896715582893E+00 -2.083323091797E+00 -6.350144054261E+00 2.204582577528E+00 5.293607544185E+00 1.267793370097E+01 2.074946616273E+01 -3.745834126048E+01 8.587664034538E+00 -1.259441840190E+01 -3.258622993002E+01 3.295561420349E+01 8.048761356592E+00 2.320932529192E+01 1.861901320696E+01 9.231933921619E+00 1.501079857370E+01 -2.098956580580E+01 2.228285525347E+03
 8.867687791383E+00 5.526120053742E+00 -1.551362032556E+01 -4.066312043198E+01 -1.644403347010E+00 3.640260679647E+01 -1.915268693076E+01 -5.368513133529E+01 1.001899892846E+01 1.001972156939E+01 3.934220078079E+01 8.981881975356E+01 3.152459372950E+01 4.202400673273E+01 -2.278586035338E+01 2.315658681284E+01 -3.754632123378E+01 -6.703415901915E+00 -6.217872541035E+01 -4.701960075386E+01 2.489667256470E+01 -1.360153272164E+01 1.170411373979E+01 8.487389409303E+00 1.467736802049E+02 1.355248607026E+01 2.940225474399E+01 -2.130933270359E+01 -1.350959250298E+00 -2.045077601277E+01 -1.137447515576E+01 1.143822266132E+01 1.439168955616E+00 -4.133565462949E+00 8.123096136393E+00 2.778280975424E+00 -5.881119174984E+00 -8.559440426658E+00 -2.754722074536E+01 -1.807383163010E+01 5.488576362005E+01 -1.102408657864E+01 2.366812030852E+01 5.183576616019E+01 -6.116667965560E+01 -1.301527667874E+01 -3.421704278507E+01 -2.967997848361E+01 -1.349711245485E+01 -2.681435545220E+01 3.951147200689E+01 1.932567476354E+01 2.206398617228E+03
 9.943079484999E+00 3.937662531796E+00 -1.202241978929E+01 -3.534489492351E+01 -1.458943898954E+00 2.765231120504E+01 -1.481647291868E+01 -4.708701835995E+01 9.930547265270E+00 6.777492847692E+00 3.392429697848E+01 6.223839754771E+01 2.432439108013E+01 3.436840173771E+01 -1.734747385441E+01 1.602200379982E+01 -3.179657682587E+01 -8.798483675060E+00 -4.589777341344E+01 -3.696144267153E+01 2.029262614311E+01 -2.371705100657E-01 6.585595385884E+00 -7.615653871334E-01 1.143018351179E+02 7.545602462838E+00 2.321992829168E+01 -1.622967031502E+01 -2.232990479240E-01 -1.278032371316E+01 -7.277878319164E+00 1.604223936111E+01 4.504887468596E+00 -4.993570536713E+00 4.173909597131E+00 5.649623851308E+00 -3.533871795987E+00 -6.712769082723E+00 -1.834397208089E+01 -2.136900244050E+01 4.570660739269E+01 -9.972922326127E+00 1.703864710095E+01 4.107664869096E+01 -4.435447647031E+01 -1.020764120143E+01 -2.838900846219E+01 -2.348750712095E+01 -1.125245247306E+01 -1.986326936907E+01 2.842614874339E+01 1.562318309437E+01 -2.554436586413E+01 2.220937406316E+03