#BIOSYM hessian 1
@Type: Hessian Update
@Units
 distance: 	A
 energy: 	Kcal/Mol
#header
@natom 4

#label
L1      L2      L3      L4

#element
Li Li Li Li

#matrix
12
 8.380210061913E+01
 -7.481793144857E+01 7.646898162701E+01
 -4.421110015021E+01 4.917481628542E+01 4.960281342350E+01
 5.593620506963E+01 -6.295342421504E+01 -4.545890791284E+01 8.129911360759E+01
 7.711417741191E+01 -7.628210466985E+01 -5.811363033299E+01 9.099797426432E+01 1.134054411414E+02
 3.824815634634E+01 -3.879977590289E+01 -3.101554634411E+01 3.413818465818E+01 4.833505771511E+01 4.257202624937E+01
 -1.284043296899E+02 1.307128877698E+02 9.808449902686E+01 -1.277149412414E+02 -1.603717073294E+02 -8.227001507193E+01 2.526744060852E+02
 -3.094792683279E+00 -9.226514785459E-03 2.924603872166E+00 -1.960808163597E+01 -2.770881773751E+01 -1.415600828479E+01 2.341722973160E+01 2.535016231765E+01
 1.279309519842E+01 -1.396875864001E+01 -8.268248503990E+00 4.488682196561E+00 4.082400765752E+00 7.785701488863E-01 -1.486518271319E+01 1.181654857365E+01 1.522406641626E+01
 -1.133397599883E+01 7.058467893791E+00 -8.414490963810E+00 -9.520377435816E+00 -7.740444346773E+00 9.883674067413E+00 3.444864846140E+00 -7.143554123568E-01 -2.416594681791E+00 1.740948858851E+01
 7.985467199396E-01 -1.776504423739E-01 6.014210175400E+00 -8.436468413311E+00 -9.414518734057E+00 4.620726472568E+00 6.241589828033E+00 2.367881934645E+00 -1.930190699391E+00 1.396331865339E+00 7.224287241786E+00
 -6.830151394551E+00 3.593718257478E+00 -1.031901857540E+01 6.832041058105E+00 5.696171852127E+00 -1.233505005414E+01 -9.493012417424E-01 -5.851441610277E-01 -7.734388061152E+00 9.474115781885E-01 -8.704745948577E+00 3.038845669069E+01

