#BIOSYM hessian 1
@Type: Hessian Update
@Units
 distance: 	A
 energy: 	Kcal/Mol
#header
@natom 19

#label
L1      L2      L3      L4      L5      L6      L7      L8      L9      L10     L11     L12     L13     L14     L15     L16     L17     L18     L19

#element
Li Li Li Li Li Li Li Li Li Li Li Li Li Li Li Li Li Li Li

#matrix
57
 7.854097606861E+00
 2.519512569889E+00 3.423462332192E+00
 -3.197176818859E+00 -5.400418035881E+00 2.029306305777E+01
 -5.053825506651E+00 -3.159162061705E+00 6.591023876106E+00 3.100377139088E+02
 -3.206477453877E+00 -2.960890750798E+00 3.213908346246E+00 -1.634399291729E+02 1.735123772863E+02
 3.895227857225E+00 1.795989853801E+00 -3.539864857715E+00 -3.505014419877E+02 2.866237321705E+02 6.016842550504E+02
 -7.353680311557E-01 7.712452946140E-01 -1.267509168683E+00 -9.612552421280E-02 -7.359986872940E+00 -3.436894159466E+00 7.914316510514E+00
 -6.582255108490E-01 3.085796404261E-01 -1.210820980580E+00 -1.274776100597E+01 2.744815410614E+00 1.125644763390E+01 2.775478460091E+00 7.141043855524E+00
 -8.113887472346E-01 1.179507529624E+00 -4.036886193511E+00 -1.524759111096E+01 2.423443281598E+00 1.700522246733E+01 4.579892931346E+00 3.064145125971E+00 8.827848667298E+00
 -5.700096998433E-01 5.564873900537E-01 -2.464044503556E+00 -8.532720274694E-01 -1.802324363558E+00 1.980669149917E-01 -1.519881796111E-01 1.195760971465E+00 6.158804002379E-01 4.010519204866E+00
 -1.511278330349E+00 -1.377511405177E+00 5.274800924624E+00 -2.446460790688E+00 -7.132873491108E-01 3.267043881122E+00 3.361117843359E-01 -5.826588923058E-01 -8.712432668114E-01 2.513986846781E-02 3.045247173037E+00
 -1.999480473057E-01 2.471552009872E+00 -1.138682026982E+01 5.843414817923E+00 -6.495086915907E+00 -1.379639718432E+01 1.841060174503E+00 1.034382988588E+00 1.640386224926E+00 2.108886407619E-01 -3.400779925652E+00 9.419342660970E+00
 -2.098479316694E+00 -1.164657883448E+00 1.203697704085E+00 5.090739561807E+01 -1.663718166296E+01 -3.657525613682E+01 -1.556962697623E+00 -1.941564385331E-01 2.134817705047E+00 -2.926362267090E+00 -1.904872470587E+00 -2.441896077567E+00 9.073477091060E+01
 2.274580548284E+00 6.855646866526E-01 -1.397710979452E+00 -4.112870416923E+00 -2.884454668953E+01 -1.881515461658E+01 3.346720593425E+00 -1.320336511385E+00 1.486414289960E-01 3.221216054216E+00 2.974794608422E+00 -1.710562267155E-01 -3.980983586287E+01 3.646642839299E+01
 -4.163550992766E-01 -1.808442220791E-03 -5.712038315786E-01 1.134141170603E+01 -1.506932757815E+01 -4.308776378257E+01 -1.840671628332E+00 -1.967390596616E+00 -6.322158805128E+00 1.064746300782E+00 2.875017293432E-01 3.810459254961E+00 -5.161122919074E+01 2.337677733711E+01 4.531987502389E+01
 5.448138533884E+00 1.454450157752E+00 -2.872960763753E+00 -1.816339461418E+02 1.535891989920E+02 3.412123045921E+02 4.798776081064E+00 2.032267400100E+00 1.591666795430E+01 -1.961617668393E+00 7.543139007486E-01 -6.051390900661E+00 -1.531502668319E+01 -1.879104719482E+01 -3.439450838862E+01 2.840722791958E+02
 -2.315182390030E-01 -7.286891416612E-02 -2.885917236167E+00 -1.151318551168E+02 1.105500555147E+02 2.403051766554E+02 -1.547819194542E+00 2.504468876184E+00 8.550523274438E+00 1.370147752063E+00 6.913728024415E-01 -4.947194723083E+00 1.129583423982E+01 -2.307158794016E+01 -3.677395881380E+01 1.808433008007E+02 1.371354471510E+02
 3.855771153841E+00 1.687155166118E+00 -6.494205325744E+00 -1.044524821708E+02 9.063069285880E+01 2.064019272248E+02 8.298958383143E-01 1.397483396556E+00 8.236313735250E+00 3.799106836415E+00 5.939286166134E-01 -4.939328566756E+00 1.539502276533E+00 -1.120411663960E+01 -2.664220739193E+01 1.600484937095E+02 1.126389965972E+02 1.105547572881E+02
 -1.390175816581E+00 1.172534520860E+00 -1.503660586152E+00 -1.367284771704E+02 9.007935138436E+01 1.644339416049E+02 4.422178967503E-01 3.901357316473E+00 2.069950891886E+00 6.912310469671E-01 2.574952156556E+00 -2.294980994318E+00 -4.573208016686E+01 1.571395613114E+01 8.246018324003E+00 3.875212624373E+01 2.429498749488E+01 2.438052604656E+01 1.458372310942E+02
 1.314979579932E+00 2.479154210792E-01 1.915505936029E+00 -2.508171068916E+01 -6.880240445217E+00 -2.768630871460E+01 2.432894435478E+00 1.293599720048E+00 2.473925226146E+00 -1.909446666352E+00 3.911615329932E-01 -6.579653211801E-01 -2.145928914650E+01 1.587497530239E+01 1.444166175213E+01 -5.963236977519E+01 -5.169189567133E+01 -4.003736842183E+01 4.944622193152E+01 6.460879181390E+01
 -7.475760351887E-01 -4.562930113537E-02 -5.529545947146E+00 -1.487796739080E+02 3.957189843836E+01 4.244035850453E+01 4.078759872765E+00 4.221256944519E+00 4.185748321505E+00 3.530948928043E+00 2.061889948995E+00 3.787702290558E+00 -9.494256716302E+01 4.754743287692E+01 5.770641052867E+01 -6.135300154889E+01 -7.018121348345E+01 -4.627941980230E+01 1.351539178479E+02 1.093337099965E+02 3.304156257387E+02
 -1.033533819996E+00 -1.746601131568E+00 1.400076364809E+00 -2.661061745993E+00 3.233974398993E+00 -1.841344298328E+00 1.887280971689E+00 4.025137056931E+00 3.513843313197E+00 1.761017711994E+00 -1.788855564468E+00 -1.780350040696E+00 3.491825854695E+00 -1.709627966587E+00 -1.912611788905E+00 -4.277748419353E+00 -2.676639712228E+00 4.208096847083E-01 -1.367161304516E+01 1.975037439820E+00 6.666817370826E+00 2.293036888620E+01
 6.814465137371E-01 -1.477308226739E-01 -2.468677255341E-01 -3.769816090012E-02 8.808680443369E-01 9.609817261339E-01 1.492352531087E+00 -1.088294505227E+00 1.467128700313E-01 -1.415696139943E+00 -9.982715766008E-01 5.735308742128E-01 -1.601844699761E+00 6.581199467510E-01 8.145666932627E-01 5.739833521526E+00 2.985391669828E-01 7.292922133539E-01 3.864411816294E+00 -2.033400727855E+00 9.301203288954E-02 1.253177316237E+00 7.119274433036E+00
 -1.989527725197E+00 -3.789662060386E-01 1.736150789964E+00 -2.218586765984E+00 1.885421870930E+00 1.461270253228E-01 -5.583018921663E-01 -7.128038111105E-01 -2.834898717076E-01 -1.010062116628E+00 6.688999264748E-01 -1.924740650796E-01 -1.570062086052E+00 -8.897299263149E-01 1.657626894782E+00 1.050782978326E-01 -2.462708361445E-01 -1.635591189976E+00 1.059183727388E+00 1.705641991177E+00 3.567444592833E+00 -2.429434012009E+00 -1.786202739597E+00 3.557723992400E+00
 7.314466243242E-01 7.380046258683E-02 -1.171063056967E+00 5.202098474374E+00 -2.747177060923E+00 -2.710845031070E+00 -1.082493750010E+00 -7.268902521674E-01 2.521647863035E+00 -1.039431312816E+00 -1.241170869675E+00 -4.158470310189E-02 5.888910935637E-01 1.423379681454E-01 -1.400310140859E-01 -8.319111787581E-01 -1.894753745062E+00 -3.078018250635E+00 -6.841241812213E+00 4.369419565516E-01 -5.431407072170E+00 -1.217651065308E-01 1.947703973913E+00 -7.290584637989E-01 1.415559459537E+01
 8.004796246725E-01 -4.626011320662E-01 -8.974164103452E-02 -4.557204530431E-01 -2.173679024827E+00 -5.265060285527E+00 -1.273285837017E+00 1.248791283359E+00 1.490089757910E-01 7.258608964163E-01 -8.466502954651E-01 1.222744166629E-01 1.617624323644E+00 -7.744343528347E-01 -9.156215753036E-01 -4.383955613544E+00 -3.829274707132E+00 -2.055426463215E+00 -1.994422532368E+00 1.037818710189E+00 4.371743493358E+00 7.635839408597E-01 -4.459966814069E-01 6.998789410797E-01 -1.841451459752E+00 1.341786687845E+01
 1.382506414104E-01 8.268481141869E-01 -8.179240776013E-01 1.729803856335E+00 -1.934121770663E+00 -1.935215188251E+00 1.411501275938E+00 -5.369545078262E-01 5.883200287749E-03 7.532313416379E-01 1.614302400181E+00 -8.124711895332E-01 -5.501213763528E-01 1.240984873871E+00 -4.835375527023E-01 -1.035868731768E+00 -8.935123974345E-01 3.153796587294E+00 9.020021171814E-02 1.153645166547E+00 -2.323755579394E+00 -1.800976725933E+00 -7.166227596575E-01 -1.448974754631E+00 2.824638460608E+00 -8.879601923538E+00 1.471589377658E+01
 -5.311421719950E-01 -1.593876425400E+00 -1.586238818889E+00 3.045184594713E+00 1.350329730580E+00 1.975848917355E+00 -1.964911899371E+00 -7.998383761563E-01 -1.729320620972E+00 -1.417495245391E+00 8.384929234867E-01 1.187854384204E+00 -1.928252169759E-01 1.176614353837E+00 3.292557999207E-02 1.315122440020E-01 -4.281242187332E-01 9.626034538825E-01 -1.770730129996E+00 1.670901382551E+00 -5.482059524548E-01 -2.243562782578E+00 -8.172721771851E-01 6.964238687052E-01 -5.000847805445E-02 2.637907641077E+00 2.553539857557E+00 2.417145877319E+01
 -7.132660325152E-01 -2.342276746633E-01 1.519615467254E+00 -2.938267371620E+00 5.943857980262E-01 2.871626193951E-01 1.912522360979E-01 1.699634345658E+00 -1.467819683725E+00 -6.852744049326E-02 6.624882024242E-01 1.503500176205E-01 -1.354504426138E+00 2.371552822807E-01 5.475610714765E-01 -4.565929329760E-02 -3.103621932852E-01 -1.756883534766E+00 6.335111904132E+00 5.192768239490E+00 3.260826394195E+00 -2.104078765977E+00 -7.038839670321E-01 7.806381890689E-01 1.715874541440E+00 1.976343350186E+00 1.162426895429E+00 1.285806585664E+00 1.967861822695E+01
 9.204176240286E-01 -2.251794399094E-01 1.456697697550E+00 -3.346906345490E+00 2.498434614900E+00 4.441437433820E+00 -8.132756457040E-02 1.115940978524E+00 -1.145256563806E-02 1.595881119284E+00 -5.373416485781E-02 -9.550746225487E-01 -2.236110291390E+00 -9.783459986759E-01 6.789021916511E-02 3.873751227164E+00 1.958153091363E+00 3.203575070390E+00 -3.542127133342E+00 -3.796306395725E+00 -1.412084569929E+00 1.057034767988E+00 -3.520725447380E-01 -1.774749009026E+00 -1.789039647751E+00 5.855739328505E-01 -5.281881282017E-01 -1.498716599610E+00 -8.167356411139E+00 1.230511441609E+01
 -1.057983503630E+00 1.507881262266E+00 3.368942204103E+00 1.454991988707E+02 -1.281859525065E+02 -2.989394473620E+02 -3.950557714076E+00 -7.904210749682E-01 -1.906353496803E+01 2.260580544234E+00 -5.451069034652E-01 8.896358844839E+00 -5.915223993991E+01 3.865536040318E+01 8.075720439565E+01 -2.417996828618E+02 -1.784281851968E+02 -1.511090007882E+02 -1.783029082779E+01 6.135797811123E+01 1.120619161477E+02 -3.436744523440E+00 -4.557159216493E+00 1.856357374134E+00 2.243108548857E+00 3.260296504330E+00 1.155547991387E+00 -9.018698307378E+00 4.456050729717E+00 3.601378419962E-01 2.915944156493E+02
 -2.139436849763E+00 -1.233620988894E+00 3.048089398748E-01 1.199370340202E+02 -1.051393230056E+02 -2.277271092641E+02 -2.463478707726E+00 -3.985533773860E+00 -8.951416921311E+00 -2.698663022900E+00 -1.444605367330E+00 5.841710913373E+00 1.806798231040E+01 1.091501275312E+01 1.819264545687E+01 -1.759116056023E+02 -1.184055456779E+02 -1.045257395059E+02 -3.078804539749E+01 3.932794169502E+01 3.284924197128E+01 -1.811870794806E+00 -2.170492126057E+00 7.002449310747E-01 3.207190567720E+00 4.384492200118E+00 -1.148760185431E+00 6.400180145495E+00 -1.075477438502E+00 -5.768501941003E+00 1.405881718600E+02 1.240672896514E+02
 -2.291092278093E+00 -7.091927457251E-01 2.206169023794E+00 9.978219797789E+01 -7.031893451418E+01 -1.532868850048E+02 3.971382640631E-01 -1.147365216247E+00 -4.040741095848E+00 -2.815691670784E+00 -9.468652878106E-01 2.078460697555E+00 5.749914038074E+01 -1.691041375728E+01 -2.525734498514E+01 -1.193498276294E+02 -6.455783644917E+01 -6.733606047458E+01 -4.316442382172E+01 1.466007912534E+01 -3.122783213004E+01 4.146242670446E+00 -3.131875228166E+00 -5.598789324590E-01 -4.210011622397E-01 2.862054425024E-01 8.672087407015E-01 4.045368320888E+00 -4.165585901710E+00 6.571395235822E-01 5.762462617692E+01 7.278019987276E+01 1.142932515163E+02
 -2.427607441062E-01 4.263906466683E-01 3.140090731299E+00 -1.060917111378E+02 9.599350892656E+01 2.211747874562E+02 -3.673448227165E+00 5.316174772792E+00 3.842036712355E+00 -2.654792483224E+00 2.231161337081E+00 -6.613377291747E+00 1.900992818683E+01 -2.515513943365E+01 -3.145583695999E+01 1.423108328576E+02 1.134297991026E+02 8.572495679301E+01 1.574504671511E+01 -4.808741883925E+01 -8.419040961234E+01 -3.697154826955E+00 -1.978788714553E+00 -9.479550283463E-01 -7.627964427660E+00 -6.873748395104E+00 -1.239916058349E+00 -8.068670608244E+00 -1.233371337252E+01 7.047605828251E+00 -1.430176427233E+02 -9.278360788643E+01 -4.776237101386E+01 1.516645413588E+02
 -7.497232668929E-01 -5.148353530911E-01 2.311105047235E+00 2.130683259360E+02 -1.348791414043E+02 -2.591948591742E+02 1.058941196395E-01 -7.656343581721E+00 -9.319626116584E+00 -1.648732162831E+00 -3.050400631815E+00 5.894880535559E+00 6.325767530960E+01 -1.774279516558E+01 -1.006001360206E+01 -9.577353395656E+01 -5.755802037250E+01 -5.545180112421E+01 -1.435738831340E+02 -5.196648476292E+01 -1.809733354358E+02 -3.744381135692E+00 -3.099934348071E-01 -1.873348355436E+00 2.525286144507E-01 -3.953219722971E-01 -2.040515606623E+00 -7.648048986245E+00 -9.220928825417E+00 4.078872485375E+00 5.964626617713E+01 6.984162035856E+01 7.280618880607E+01 -3.341368938238E+01 2.083844049308E+02
 1.304604812132E+00 -2.379916084540E-01 4.382913404568E+00 4.907826347407E+02 -3.232937228716E+02 -6.361847040550E+02 -2.557547752296E+00 -1.915917182362E+01 -2.401294974429E+01 -5.538126843751E+00 -7.160226954148E+00 1.408158182545E+01 1.215816533161E+02 -2.609954381718E+01 -5.409367961714E+00 -2.652695976065E+02 -1.670089171112E+02 -1.603136401279E+02 -3.061727582679E+02 -8.444823262599E+01 -3.450077885609E+02 -8.708042950579E+00 2.587669828707E+00 -3.930690518007E+00 7.975986791080E+00 2.748797868958E+00 -3.111117707610E-01 4.403413080565E+00 -2.665009528044E+00 -3.771967519386E+00 1.851984304507E+02 1.907995979765E+02 1.741348056639E+02 -1.403027659271E+02 4.316358603398E+02 9.811221971445E+02
 2.044888591488E-01 1.832992960909E-01 -1.420565080861E+00 2.778737162926E-01 -1.930620953927E+00 3.913871030075E-01 1.001632630125E+00 2.567738084766E-01 1.085264034596E+00 3.584444564375E-01 -6.546734160700E-01 6.162480223770E-01 8.031913699301E-01 -6.756031930125E-01 -1.198527819467E+00 -2.668397762766E+00 -6.208778584487E-02 2.049527692299E+00 -4.068888977525E-01 1.930605885598E-01 1.001369966015E+00 2.256674404280E-01 1.857549093344E+00 4.852999962386E-01 -1.250513075716E+00 1.050756755797E+00 -7.923776201020E-01 -7.185145935677E-01 -2.836197036624E+00 2.723784959474E+00 -1.268390800468E+00 -2.173975767876E+00 2.256868560020E+00 6.335949761294E-01 1.846687941566E+00 -6.174360710692E-01 2.138165297468E+01
 -1.845301977362E+00 8.902127572931E-01 -1.420193484979E+00 -4.551520274179E+00 3.372603090719E-02 2.850154863192E+00 2.477593663869E+00 4.644624393904E-01 3.823165403368E-01 -2.638108992400E-01 5.286569602732E-01 2.361489812167E+00 -7.136867988595E-01 6.662431426485E-01 -8.356681807430E-01 3.948604477429E+00 2.308691551208E+00 1.873914419574E+00 4.762445293686E+00 -1.338660048730E+00 2.973411559955E+00 -1.809468265583E+00 8.248067710328E-01 1.321717491489E+00 -3.272820283231E+00 -6.213491398301E+00 6.460146516392E+00 -1.251384033287E+00 -1.223650150706E+00 3.454470543407E-01 -3.271144274255E+00 -2.839523651054E+00 -1.897054274915E+00 1.932326538045E+00 -1.649720745641E+00 -6.372279449010E+00 -1.065099615987E+00 1.574363563058E+01
 2.798275871698E+00 1.418988862099E-01 -2.781831911521E-01 6.753854397235E-01 3.902105557917E-01 1.522827948205E+00 -2.728328756078E+00 -9.293596289174E-01 -1.557868433299E+00 1.160003423134E-01 -7.732343162725E-01 -1.547749171902E+00 2.553813843052E-01 8.134915592461E-01 -9.230292718182E-02 -1.991124916584E+00 -1.138211261450E+00 -2.087034455739E-01 1.452585089254E+00 1.126606476437E+00 -1.205154230655E+00 -1.491457443238E+00 -2.064265644177E-01 9.844627707732E-01 5.275683072846E-01 5.762616792011E+00 -4.143877439704E+00 -9.034499920647E-01 3.975877687623E-02 -4.058041553075E+00 1.254971567519E+00 3.446088792604E+00 -1.056008814499E+00 9.190899265511E-01 2.655454736960E-01 1.726045095244E+00 -2.726326565197E+00 -3.766068056638E+00 1.393144811493E+01
 -3.242361991204E-01 -2.913744931343E-01 -1.902736803149E+00 2.282398500731E-01 -2.537989670074E+00 -2.930240432762E+00 1.632805764544E+00 1.538054052855E-01 6.864617802061E-01 -2.748206546211E-02 -6.430735472059E-01 2.363301733015E+00 1.086524636904E+00 7.066005473775E-01 -7.015692132475E-01 4.283051027378E-02 -6.293972887268E-01 -2.446267466613E+00 -3.224463179752E+00 1.534469875621E+00 1.757957983305E+00 1.039766609739E+00 -4.252753257177E-01 -1.386970444880E-02 -9.800458154523E-01 1.805797270531E-01 -1.022272788844E+00 -3.674895928869E+00 3.163424478666E+00 -1.117848691791E+00 -1.212799327157E-01 -7.125258186698E-02 3.446287263231E+00 4.215816173603E-01 2.920241932968E+00 2.624678930808E+00 -2.958540403162E+00 1.531409267585E+00 1.817510171901E+00 6.478715770246E+00
 4.510091410617E-01 -9.315443792268E-01 -2.676558673526E+00 4.127543452615E+00 -2.255595608143E-01 -2.839239522025E+00 -9.076932056538E-01 4.213915717577E-01 1.634442412511E+00 8.227452627678E-01 -8.458252601667E-01 9.459251546374E-01 -1.643424443884E-01 -3.553536552667E-01 9.127947315652E-01 3.311011214547E+00 -1.462996503910E-01 2.878663164324E-01 -9.316964963324E+00 1.030478114520E+00 1.420154833256E+00 2.456725842828E+00 -1.756237375741E+00 -1.450976181284E+00 1.066145667132E+00 -1.166294601500E+00 1.272591251503E+00 3.598555272060E+00 -4.407400771755E+00 4.736789121867E+00 -1.409541216396E-01 -4.285864933140E+00 6.047572479572E+00 6.137022448837E-02 1.043559453741E+00 4.154471878465E+00 2.800486354177E+00 -5.007716131307E+00 -1.546891366764E+00 1.218757561743E+00 2.372979187307E+01
 -4.570582767170E-01 -7.933584283949E-03 7.457523622569E-02 -4.705732160734E+00 3.067703268466E+00 1.731182271247E+00 1.575955119082E+00 3.169193114402E-01 1.800152519340E-01 -4.890731869322E-01 4.584206723522E-01 -9.161581632117E-02 -1.478104548730E+00 -5.002849010084E-01 1.817237099883E+00 -1.122854288801E+00 -1.457771553426E+00 3.652263480025E-01 -2.012109201065E+00 9.404408451421E-01 7.200378929564E+00 1.437348126702E+00 -1.141331976173E+00 -1.001601387925E-02 2.281951756375E-01 1.295600427840E+00 4.282093294535E-01 -1.989613503136E+00 2.396249520124E+00 -3.039080479359E+00 4.052291550237E+00 2.649430252579E+00 -6.141048529713E+00 2.622638969391E+00 -3.870230966488E+00 -9.888474445032E+00 -3.372455522372E-01 -2.617912043123E+00 6.399574165519E-01 1.255736591503E+00 -2.050082674689E+00 1.470683869636E+01
 -2.509797360693E+00 1.445468785991E+00 1.989865521628E+00 8.784695923135E+00 1.307146094814E+00 2.209482995884E+00 -1.839026993894E+00 -4.270051184858E+00 -2.517235069093E+00 -8.852721030034E-01 6.024008010161E-01 -9.374170225596E-01 2.884600876526E+00 -1.004932816318E+00 7.927096142258E-01 5.263036781852E-01 5.972088172050E-01 -1.111349163029E+00 -7.962078446322E+00 -1.947111256509E+00 -1.161038693853E+01 -4.130969651648E-01 -2.198619632705E+00 3.576985935509E+00 -1.806949914179E+00 -9.556890233790E-01 -3.095599835935E+00 1.984665978163E-01 2.868420520402E-01 -1.203313193212E+00 -1.349179279358E+00 3.694833059605E-01 4.100181310435E+00 5.508400411308E+00 6.335712497893E+00 1.209753794887E+01 -5.383723337885E-01 -9.935151674826E-01 -1.973074213935E-02 6.389455248398E-01 1.993618987270E+00 2.080086848730E+00 2.116380708287E+01
 -3.469445493935E-01 -1.842552020719E-02 -6.558605050872E-01 1.578104485001E+00 -1.099162011388E-02 -2.004535367860E-01 -2.726266211220E-01 1.955678735645E+00 3.669267139558E-01 1.933034115985E-01 -8.065790072019E-01 1.531936346242E+00 -1.222478192119E+00 -1.106544073149E+00 8.867531672647E-01 -5.192798185632E-01 1.233696045265E+00 -1.856126694012E+00 -3.190069353911E+00 -3.005311016292E+00 -1.211754197876E+00 -7.798999360778E-01 -2.655432533831E+00 1.227171806500E+00 1.555376458100E+00 -6.491065984619E-01 -2.327219132547E+00 -7.780880741360E-01 6.844522136361E-01 1.274422662396E+00 3.296983141511E+00 2.291950471783E-01 3.932355714669E-01 -6.342162886060E-01 2.474108776125E+00 2.990464033384E+00 2.172177246560E-01 -7.585551233951E-01 -6.288291010024E-01 5.485854247665E-01 1.076466151548E+00 6.133025126902E-01 1.309888570273E+00 7.321079202065E+00
 -1.394659357726E-01 -1.303675674420E+00 2.775533933012E+00 7.155967192670E+00 9.074390151781E-01 -1.019035230354E+00 -3.726456813881E-01 1.811242837504E+00 -3.129961943848E-01 1.944278987751E-01 3.613497729631E-01 -2.003495752688E+00 5.224790349988E+00 -2.580378873935E+00 -4.658444839902E+00 -5.631999459073E+00 -1.933138801064E+00 -8.674804966416E+00 1.749359966882E+00 3.742758674630E-02 -7.870988592402E+00 2.251377273900E+00 2.188632023349E+00 -3.352167057731E+00 8.777143359949E-01 -8.403165068691E-01 1.179004361013E+00 -1.411701027359E-01 1.185697510038E+00 -7.436919019952E-01 1.072836892427E-01 2.119202679138E+00 6.151814116749E+00 1.606228409684E+00 1.270552849290E+00 4.706748322282E+00 -1.621272827705E+00 -6.101075449814E-01 -3.631953606037E-01 1.804680890879E-01 -2.547196978587E-01 -1.657038964208E+00 -6.290551757843E+00 -3.383437059543E+00 1.690940989740E+01
 1.130252826989E+00 -7.771523233190E-01 -4.812533723341E-01 -1.551561980167E+01 3.228318024433E+00 3.965962645258E+00 -7.555727234084E-01 1.782716589079E+00 9.396655743052E-01 1.237884848806E+00 -2.619351643639E-01 5.570100579390E-01 -7.147763511296E+00 2.104804654920E+00 5.612379935804E+00 6.217432209070E-01 -3.137803219633E-01 -3.221287345718E+00 1.239721497600E+00 6.150588621950E+00 3.449648207345E+01 2.781003579058E+00 -2.899405752942E+00 -4.314913714468E-01 -2.603502512961E+00 -6.725779649882E-02 -5.969979803221E+00 -1.747595116632E+00 -2.588515167763E+00 1.893291659120E+00 5.642175478286E+00 -1.054405783149E+00 -3.698424530029E+00 -3.355651027293E+00 -1.147172225821E+01 -2.619819362630E+01 -4.030741920712E+00 -3.523835746342E+00 -1.184520438194E+00 1.293366978550E+00 1.643821258800E+00 -2.472964317667E-01 -3.938269757678E+00 3.897257758591E+00 7.951947617571E-01 2.149657960698E+01
 -4.873930849309E-01 -2.309579171267E-01 1.050498762602E+00 1.008275306476E+01 -7.513559960677E+00 -1.140822241424E+01 -1.165980496131E+00 -3.225653228340E+00 -1.227048183374E+00 1.831391195129E+00 1.343205014767E+00 -2.115708426493E+00 4.758155219850E-01 4.729783370562E+00 1.445659782623E+00 -9.930225380819E+00 -5.102440315634E+00 -2.523151438466E+00 -5.733607255578E+00 2.378247888675E+00 3.015498177092E+00 2.078794932107E+00 -1.696992977212E+00 -1.183088748226E+00 -3.621629712097E-01 -2.446442151494E-01 9.543359381103E-01 -1.759437548977E+00 -6.333773771879E-03 -1.490925033614E-01 7.058247520548E+00 3.816075860599E+00 4.569732426521E+00 -3.907998437123E+00 3.951010372911E+00 8.887531916374E+00 -1.974712532454E+00 -4.022377405305E+00 -8.872345154377E-01 1.116763167420E+00 2.927063788307E+00 1.615233164857E+00 3.920793918057E+00 -2.854303817591E+00 1.007098388033E-01 1.742438576281E+00 9.563966820247E+00
 -3.710823307242E-01 2.093783582770E-01 1.122225693935E+00 5.826113691650E+00 4.006017183237E+00 6.707042176807E+00 -1.785485420786E+00 2.045083340252E+00 -2.638371655753E+00 -1.800985585470E+00 -9.492780936507E-01 1.425931641280E-01 6.890631501398E+00 -3.548771528454E+00 -5.250099372217E+00 -8.422368744749E+00 1.430199130630E+00 -3.153960041213E+00 1.074122367763E+01 -2.028122342228E+00 -3.329295930376E+01 1.282621009109E+00 -1.276690597161E+00 1.939586765304E-01 -4.701171349441E+00 8.817709498989E-01 -5.802770629271E+00 -1.448524324582E+00 -2.027238533538E-01 2.314903447803E-01 -4.646515185338E-01 3.156332416134E+00 9.974168933014E+00 1.358253242404E+01 6.745135366011E+00 6.183131906455E+00 -3.884462829432E+00 -1.443152920903E+00 -2.101320070680E+00 -2.644795083666E-01 -2.262430430208E+00 -2.619882017711E+00 3.923972157524E+00 1.140178045230E+00 3.029464809989E+00 -8.653790454026E+00 -1.388285380704E+00 3.424221959032E+01
 1.487349681261E+00 -8.733345830413E-01 3.248510887879E+00 -2.534970268854E+01 6.735600675201E+00 6.160894221508E+00 -2.663515180314E+00 -2.965870706147E-02 -3.477095106754E+00 1.167347863670E+00 2.462854179207E+00 -3.178166327683E+00 -2.076589075314E+01 8.980625161785E+00 1.305962502727E+01 -6.863256794795E+00 -8.974578384635E+00 -1.770852438818E+00 1.475577989286E+01 7.455429603545E+00 4.513171466987E+01 -1.513031841100E+00 -8.003274506204E-01 2.408695616501E+00 4.433785226303E+00 5.943453233203E+00 2.191221307579E+00 7.813588897728E+00 8.893320554547E+00 -1.981206321034E+00 2.200872226132E+01 1.923557088154E+00 -9.290132909982E+00 -2.633234923943E+01 -3.385066522148E+01 -4.852887382742E+01 -8.308646810339E+00 -3.326155339786E-01 4.530432480335E+00 -1.049103085586E+00 -6.494734424330E+00 2.428914777052E+00 -3.158856102491E+00 1.955693189418E+00 -5.670356233063E+00 -7.056708533847E-01 -3.572181017066E+00 -5.634146086725E+00 4.162006869134E+01
 1.811941978394E+00 9.011778214844E-01 1.889748562194E+00 2.287780259705E-01 -1.050423920414E+01 -1.703945839471E+01 2.331030884871E+00 5.762606384286E-01 -1.120493315755E-01 6.118445243312E-01 1.477635963599E+00 -2.728848747902E+00 -1.211861599709E+01 6.555428830968E+00 9.917799950068E+00 -5.682458223485E+00 -8.437966925230E+00 -8.770738916817E-01 -2.804819556009E+00 -7.655203537756E+00 1.051881010858E+01 2.682820827412E+00 4.654879086149E+00 -1.184659143451E+00 2.459500159484E+00 -4.906332661940E+00 4.987576317415E+00 3.898682938370E-01 -6.202491515317E+00 7.831657500390E-01 1.375736216908E+01 2.259333609230E+00 -9.556557803493E+00 -1.132324848552E+01 -5.068507479577E-01 5.817318809762E+00 4.152996154219E+00 1.163699894792E+00 -3.018453486970E+00 -8.379459164073E+00 -6.909766113554E+00 2.255844199617E+00 -5.257915424817E+00 2.971336149808E-01 -1.719401129447E-02 -6.072154441469E-01 -5.948030358594E+00 -6.436669046998E+00 1.384931938862E+01 3.451970237458E+01
 -6.008585075408E-01 9.450577462839E-01 -2.650911337769E+00 1.944395482043E+01 -1.407588673215E+01 -2.827219609962E+01 2.119906093825E+00 2.850750301373E-01 2.813696362655E+00 3.443180680550E-01 -1.030177430014E+00 2.200811492379E+00 -1.782948605015E+00 2.177543823797E+00 2.797056845438E+00 -1.125589726236E+01 -9.508839121211E+00 -6.983768701786E+00 -3.045075565576E+00 2.194482574018E+00 1.149578967723E+00 -1.641222547517E+00 1.638368444154E+00 -2.219025184503E-01 5.784907328055E+00 1.098814658507E+00 -7.190424129906E-01 -2.367841188513E+00 2.668505531738E+00 -4.083144961377E+00 1.551719227043E+01 8.118257542541E+00 -2.148463131793E-01 -2.074666649395E+01 7.707600872651E+00 2.496119709798E+01 -1.265755446373E-02 -1.935724271733E+00 -1.270419582752E+00 -2.344849498305E+00 -2.244238058851E+00 1.897926705863E+00 -4.025670776098E+00 -1.215744365129E-01 7.469471596519E-02 6.886017678855E-01 -5.516891219873E-01 -3.766004151209E+00 1.530264471561E-01 4.542856516236E+00 1.342196222210E+01
 -1.662085834685E+00 -6.457798335929E-01 1.921985642328E-01 4.227183660749E+00 -3.874642453185E+00 -8.327030889780E+00 2.694794137400E+00 5.066123319611E-01 2.354969321339E+00 -1.324238950362E+00 7.346144684297E-01 1.403669131698E+00 8.440488503895E-01 3.510204071051E-02 -1.206674362476E+00 3.106082016444E+00 -6.464721859419E-01 -1.543575751209E+00 2.794689073117E+00 -1.575720025152E-01 -3.877620860685E+00 -1.732651141228E+00 6.955300268243E-01 -3.341737305021E-01 -2.897527695954E+00 -1.938842266434E+00 3.140148669751E+00 -1.152202063544E+00 -1.925553593377E+00 -2.532670605165E+00 -2.476936209986E+00 9.289767185507E-01 -4.309839637188E+00 1.554458579905E+00 4.463142527160E+00 6.775364158976E+00 -3.508035261082E+00 6.334866641408E+00 -3.594840537791E+00 -1.014636235769E+00 -3.348926249784E+00 -3.270419725365E+00 -9.685488025709E+00 -5.277620816545E+00 5.967897813680E+00 -1.094631625723E+00 -2.850616001104E-01 2.438509415363E+00 -9.006919031099E+00 -1.080834559144E+00 3.728058534280E+00 1.949857075945E+01
 9.744055734549E-01 1.262826440281E+00 -1.514603419216E+00 -1.021146433035E+01 7.849181749872E+00 1.079419159342E+01 -3.529860766346E-01 -8.110817527359E-01 1.131380638788E+00 -1.006766921419E+00 -7.915813822354E-01 1.016257581177E+00 -2.000411587429E+00 -2.338231245618E+00 -6.044082918872E-01 6.919737789270E+00 2.738495475115E+00 9.338574627490E-01 9.205867509330E+00 3.532817495054E+00 4.023902257941E+00 -2.776128800308E+00 2.203315342627E-01 5.038842911210E-01 -5.180385980740E-01 5.662686232286E-01 -4.732822656715E-01 -1.225444660490E+00 -1.197452323729E+00 -8.693283584966E-01 -4.266297976002E+00 -2.635279294191E+00 -3.495666249316E+00 3.656239606611E+00 -6.483528388352E+00 -1.569203076026E+01 -3.523779673491E+00 1.190999426044E+00 1.333385647460E+00 -2.591696928708E-01 -5.282016124442E+00 -4.036447558874E+00 -3.425428319558E+00 -2.657315707972E+00 2.608768037243E+00 6.100567726310E-01 -7.412748061084E-01 2.148893611922E+00 -1.529312535562E+00 -2.434918687914E+00 1.425353033051E-01 7.182071387443E+00 7.994959046881E+00
 -6.464089824995E-01 -6.173439797374E-02 2.322270029037E+00 -6.175634776638E+00 3.184348866532E+00 7.738178666125E+00 -1.736046274017E+00 5.790353845807E-01 -1.842773305717E+00 -3.453839495631E-01 1.762554439814E-01 -1.012499527658E+00 -2.450703811971E+00 6.732542926850E-01 3.364442461082E+00 1.350314589562E+00 1.388627161035E+00 4.643170153101E-01 2.095456811620E+00 -6.347531186928E-01 2.733473018231E+00 1.835310058964E+00 8.159198163885E-02 1.315622757978E+00 -6.489845078144E-01 -2.466387478358E+00 -7.490383804812E-01 8.201225132780E-01 9.888091503633E-01 -8.105890022475E-01 -3.042421955706E-01 -1.032904806949E+00 -5.413711639957E+00 3.346575969993E+00 -3.310903766676E+00 -6.817797272085E+00 2.448624987324E+00 1.158203645396E+00 -1.886248711609E+00 -3.162828240150E+00 -3.921049718749E+00 -6.568238634090E+00 2.998014738720E+00 1.448873410993E+00 -2.408574722064E+00 1.442985198910E+00 -1.773699853043E+00 1.892274303773E-01 -7.333923152147E-01 3.883448894756E+00 -2.016178159679E+00 -4.245516266356E-01 8.774171677595E-01 1.170228604196E+01