#BIOSYM hessian 1
#COMMENT: Materials Studio generated
@Type: Hessian
@Units
 distance: 	A
 energy: 	Kcal/Mol
#header
@natom 19

#label
Li1     Li2     Li3     Li4     Li5     Li6     Li7     Li8     Li9     Li10    Li11    Li12    Li13    Li14    Li15    Li16    Li17    Li18    Li19    

#element
Li Li Li Li Li Li Li Li Li Li Li Li Li Li Li Li Li Li Li 

#matrix
57        
 2.622384732484e+004
 1.198744179142e+003 3.829472737022e+004
 -8.571364269128e+002 9.266577181305e+002 2.475494864553e+004
 -3.534128955712e+002 1.866857574448e+003 8.105542301527e+001 3.845175384841e+004
 -3.239012090577e+002 5.165069690682e+001 3.545115032287e+002 6.096036969551e+003 2.667477941585e+004
 1.585994449096e+003 -9.016136317029e+002 1.846069788838e+002 -2.825699579104e+003 1.067890259078e+002 2.742856218626e+004
 1.648600450445e+003 4.537006062021e+002 -1.321395420227e+003 -4.588212589517e+003 2.446015261155e+003 -3.008931026494e+002 2.486258718617e+004
 -8.970733974920e+002 2.045201263191e+003 1.648487630049e+002 -2.569293149412e+002 -2.330249899414e+003 8.816121071090e+002 3.405952144688e+002 3.818600891649e+004
 -3.590016599218e+003 -2.294879860709e+002 -1.589615690881e+003 3.610694298850e+002 -7.724423951435e+002 2.035843741428e+003 6.923098370435e+002 -1.070068597192e+003 2.818507351805e+004
 -9.404496968401e+003 -1.745370026409e+003 -1.190483846238e+003 -2.712932935577e+003 -1.385427429232e+003 1.941468858740e+002 -1.575449513006e+003 -1.848309668103e+003 2.515997131706e+003 3.810350646182e+004
 -3.818072811250e+003 -3.911698162169e+003 -4.659205787891e+002 2.173083001305e+003 -3.104573628757e+003 -7.999163354142e+002 -1.504093363799e+002 2.774805603525e+003 1.684972484605e+003 -8.561585963314e+003 3.756570469364e+004
 -8.670416982401e+002 -5.960662787275e+002 6.840429869246e+002 4.069911944021e+002 7.336487586068e+002 -3.369374927057e+002 8.597902652939e+002 4.624979233533e+001 9.563898336229e+002 1.202678848426e+003 -2.756151915327e+003 2.884111223722e+004
 5.315435173377e+002 -4.888131993368e+001 9.798940603990e+002 1.058498347408e+003 6.519127893976e+002 -1.581596897887e+003 -1.962948825917e+003 1.048881061916e+003 2.118409182232e+003 -1.280995695251e+003 -1.772351503837e+003 1.062370048237e+003 4.075355708776e+004
 5.437490140026e+003 -2.443534056197e+003 1.743615213757e+002 6.114970419116e+001 9.353138097256e+002 -2.396493452532e+003 -2.984527825465e+003 -1.604651183076e+002 4.079236045995e+003 -1.756939785520e+003 -2.601195445800e+003 -6.147834006765e+002 -1.592548007692e+003 2.923604080169e+004
 2.585386132770e+003 3.097883431337e+002 -3.889254872347e+002 -1.474350111966e+003 -2.370666061620e+002 -5.752073020174e+002 3.942526184280e+002 -5.651920072088e+002 3.715550782596e+002 -2.584309994780e+003 1.567739698346e+003 -7.756634297631e+002 -3.219134365894e+003 -4.344654434718e+003 3.794429606802e+004
 -5.428222883185e+002 -7.885703026942e+002 -2.058201114604e+003 8.879848236140e+002 7.674995508481e+002 -7.865655160818e+002 -1.440431182719e+003 6.156846915930e+002 -1.773567594828e+002 6.932120312133e+002 -1.932000313370e+003 -1.908108531064e-001 -1.835821946233e+003 -1.321067366758e+003 1.069449680258e+003 4.048830719336e+004
 2.832590762813e+002 -3.247863734690e+003 8.273753648839e+002 3.826576998946e+002 -2.410616722344e+002 3.271046892693e+002 9.495926230769e+000 -1.142567455283e+003 -1.825431868379e+003 2.356450714649e+003 -9.331225840447e+002 4.801159831834e+002 1.310502423611e+002 1.122552412937e+003 1.114378500980e+003 5.919303091967e+002 3.139206985573e+004
 -2.133905492109e+003 -3.498466699400e+002 -8.172893917321e+002 2.374153193778e+003 9.178476665689e+002 -1.766521944379e+002 8.504830037792e+002 9.688433977909e+002 -1.491204441258e+003 1.864429553829e+003 -1.479864784429e+003 -4.975084973114e+002 -9.178048995264e+002 1.468402277327e+002 -3.270276323511e+003 3.307740230662e+003 2.068047212421e+002 4.340678214384e+004
 -2.098077455428e+003 -2.371563239893e+003 -4.301588689985e+002 3.247364369552e+003 1.674090191793e+003 -3.186540999778e+002 -3.079413540175e+003 1.284172076973e+003 1.174147164758e+002 3.739785623562e+003 -2.917507399878e+003 8.113772068951e+002 -4.179678900406e+003 3.249863921813e+003 -7.303375201244e+002 -3.794052315631e+003 5.270324482627e+002 -5.145481618787e+001 4.383440033242e+004
 1.778873515285e+003 9.496582882751e+001 -1.019654306871e+003 -2.489718417241e+003 -2.483352596082e+002 1.796845615546e+001 -3.569096245731e+003 -2.507613605315e+003 1.254936123234e+003 -2.514767032344e+003 9.970413089534e+002 -3.894101803642e+002 4.313343394956e+003 -6.541457279567e+003 5.348215265166e+003 2.695424751000e+003 -1.794060380593e+003 -3.001906012003e+003 -7.444374333584e+003 3.007493961385e+004
 3.661112953219e+003 9.551126703613e+002 1.612547026975e+003 -4.215075223878e+002 -2.155373295728e+002 -2.124044435067e+003 -3.040937477841e+002 5.087682215611e+002 3.865975224484e+003 -4.039686413127e+003 -4.956086137236e+002 -1.815288425641e+003 -3.320402665635e+003 2.957694287605e+003 -6.117018666309e+003 4.151842265783e+003 -4.356210269582e+003 -9.341195609818e+003 -3.215756284278e+003 -4.918802221150e+002 3.029068065001e+004
 -1.379314065995e+003 -4.597117479635e+000 1.013066567891e+003 -2.532008275918e+003 -6.620112286913e+002 -1.288856096837e+003 1.091688670637e+003 -8.300277166550e+002 -1.331124422430e+003 -2.923100423334e+002 1.972504844586e+003 -1.064267679562e+003 5.494573785990e+002 1.129724989646e+003 6.002724155998e+002 -1.025086194433e+004 -3.152116792566e+003 4.487832778529e+003 -1.344249355463e+003 8.560882256544e+002 3.202566690246e+003 3.060948071255e+004
 -6.924864060380e+002 -5.870949650185e+002 2.628347094570e+003 -1.186610050734e+003 -1.968471894936e+002 -1.483769616951e+002 1.459039332651e+003 -2.478967063310e+003 -2.395228404297e+003 7.574495373327e+002 4.095968599639e+001 1.214167317569e+003 5.535554868812e+002 1.978156756234e+002 2.062662286393e+002 -3.127006171256e+003 -4.087897874204e+002 6.417199312856e+002 8.601358121084e+002 2.463565429295e+002 -4.607205394337e+002 -6.754130124713e+002 2.743110708913e+004
 -1.679995051806e+003 -2.962276711321e+003 -1.417346254572e+003 2.346996120014e+003 9.592486735898e+002 -2.348671195578e+003 1.644475645034e+003 1.320586025175e+003 -3.503227609180e+003 4.254907736574e+003 -2.305962839992e+003 -1.699959038038e+003 -1.957767875685e+003 -3.385955483047e+002 1.740833852169e+003 2.997793430737e+003 9.942389152263e+002 -7.129475169700e+003 -3.439612566683e+003 2.358600897242e+003 -6.051237126056e+002 -1.401872973337e+003 -1.552316715704e+003 5.066834520448e+004
 -2.088952298157e+003 -6.201306818694e+002 8.998095617596e+002 -1.174750328932e+003 -7.610651202741e+002 2.774500155541e+003 2.966820998459e+003 -6.309389336451e+002 -1.592609157371e+003 1.033365390884e+003 1.884429471483e+003 1.202732930788e+003 -7.716117054510e+003 -1.358811705940e+003 -5.396241119080e+003 1.241831981140e+003 -3.129200807352e+002 -1.722170789461e+003 -2.685783725487e+003 1.373204459930e+003 -1.465369733332e+003 -1.622587800908e+003 -1.985722001226e+003 -1.075912598020e+003 2.776763498750e+004
 -7.734816012346e+002 -7.981451212005e+002 -6.415191870266e+001 -4.644285387052e+002 -7.117185066007e+002 1.049675710657e+003 1.303611079496e+003 -1.995979056063e+003 1.481337087801e+003 7.893048672844e+002 -6.824101306861e+002 -2.276526235040e+003 -2.935097041862e+003 1.823793953012e+002 -2.073913407025e+003 -4.647184911393e+001 -3.759560621656e+002 -5.578516903733e+002 7.361819558479e+002 3.146662088713e+002 9.050666809884e+002 -3.123102170442e+002 -2.289250644050e+002 -4.978456016408e+002 -1.100867511832e+003 2.907435840271e+004
 -1.120405933533e+003 1.937214116471e+003 -4.059175154585e+003 -2.206055011741e+003 -1.221292311513e+003 -1.012903819972e+003 -1.555127233652e+003 -1.938750129873e+003 -4.967598490264e+003 -1.265242795258e+003 2.348396888527e+003 -7.768498468893e+002 -1.919902417181e+003 2.176914538661e+003 -5.265017470309e+003 2.538538586955e+003 -5.593086576559e+002 3.186313062368e+003 2.866716567822e+003 -2.313833272508e+003 -6.271686392379e+002 5.253056583423e+000 1.024659290485e+003 5.449407351059e+003 1.703304071344e+003 2.012740401527e+003 4.802635576558e+004
 -2.297775859873e+003 8.609336870352e+002 -2.322828779560e+002 -9.943483928455e+003 2.756641030266e+003 -4.327876437266e+003 -1.499010865412e+003 8.688833786691e+002 2.475029651376e+003 3.132877043585e+002 2.915110795549e+003 -1.519852392259e+002 1.304778838174e+003 2.931077610209e+003 6.139873278019e+002 -1.760714352549e+003 -3.144363988893e+003 4.874152456826e+002 -9.097553477052e+002 -7.841040082178e+002 3.692485346081e+003 -3.016280058744e+003 -4.611809918544e+003 -2.258589906140e+003 -1.933104567736e+003 -8.336497776858e+002 -2.245045655229e+003 3.662156674082e+004
 3.623944946503e+003 9.805224835710e+002 4.595651842107e+001 9.332173862398e+002 -2.400966931688e+003 7.717335464735e+002 5.768734566345e+002 -4.456816585920e+003 -2.480157282851e+003 -3.404955019427e+003 -1.831795137618e+003 2.458563444828e+002 8.492789640725e+000 -2.915494534742e+003 -1.471440082716e+003 -8.786201948541e+002 -1.035561436048e+003 3.764640322013e+003 3.086418583721e+003 -2.045315482335e+003 -4.054571702010e+003 -2.170649744654e+003 -4.796873179787e+003 -1.822006391895e+002 2.986219203227e+003 -1.379383993090e+002 -2.366128299016e+003 3.497577670624e+003 3.601881163314e+004
 2.360841130732e+003 -1.843482515718e+003 -8.232288360159e+002 -3.086417639077e+003 3.058144924395e+003 -5.775031358192e+003 2.149979461554e+003 -1.259784329989e+003 -5.052712953245e+003 4.881469437792e+002 -2.574437937161e+003 -1.559625020650e+002 -3.861390894939e+003 -3.428416762166e+003 3.072442999995e+002 -2.820893360429e+003 -1.713556425470e+002 -1.005813282349e+003 -1.417640286953e+003 1.045752246468e+003 -2.648280746784e+003 -9.970983889211e+002 -3.953379814985e+003 -6.561922292129e+003 3.278691904087e+003 2.242070255760e+003 9.266556236718e+002 5.788639523271e+002 -6.554631934716e+003 4.304680810729e+004
 2.023557902543e+003 7.635319939365e+002 3.205547194345e+000 -6.114307298194e+003 8.943996912377e+002 6.000163130287e+003 -5.945049464612e+003 2.936629924478e+003 -2.544576844128e+003 -2.220500639468e+003 5.537297051960e+002 -8.407969453829e+002 -1.711139526917e+003 -2.835758013114e+003 -1.805999183640e+003 1.494481116244e+003 2.879871379471e+002 2.309812079184e+003 8.780348319994e+001 -1.882676729979e+003 -4.184252900121e+003 6.217453509483e+002 6.995122090233e+002 3.664371725159e+003 -2.382992233822e+003 -5.030789809955e+003 1.887241670498e+003 -3.175847731321e+002 -4.597495669659e+003 -2.003415613462e+003 4.134423989108e+004
 -9.753738661601e+002 1.171824387463e+003 -2.939093825745e+003 -3.835415205087e+002 -1.784338234789e+003 -2.320590939524e+003 2.861415418038e+003 -6.415513126747e+003 2.714006843000e+003 -1.641774718989e+003 -7.991284934995e+002 5.740713399812e+002 -7.609587969073e+002 4.297928862533e+002 -5.699248710022e+002 6.270329738118e+002 -4.341850192551e+002 2.465626279186e+003 2.190703764725e+003 -1.967229470138e+003 1.485708091484e+003 -5.644946138758e+001 9.551303042813e+002 2.809404292974e+003 -2.178337506184e+003 -3.397130271847e+003 -1.635672716314e+003 -8.388609920887e+002 -2.242075821223e+003 1.801738845478e+003 4.204930222903e+003 3.474971065388e+004
 -2.995848747246e+003 1.632336786902e+003 6.286833322135e+002 3.347734476895e+003 -3.998848148743e+003 -5.734889670262e+003 -2.335639232842e+003 5.165262546911e+002 -6.940428181746e+003 -2.381410552762e+002 3.332707129047e+003 -1.052766571460e+002 3.658038365888e+003 3.584661263691e+003 -1.312927073549e+003 1.380420531599e+003 -5.193742958230e+002 -1.779717186184e+002 2.224546723844e+003 -4.291723540332e+002 2.173387124380e+003 -3.447467439230e+003 -2.870002875537e+003 -8.820587789818e+002 1.872579412321e+003 3.825637231163e+003 -8.271597703031e+003 -5.568808153437e+003 2.492808938318e+003 -8.467810319075e+003 3.463704778004e+003 2.727485023837e+003 3.971149763640e+004
 -6.338507028741e+003 2.323031575400e+003 -1.125762708173e+003 2.777672888713e+003 8.986620755126e+002 -1.972707329811e+003 -7.114450087779e+002 2.773628130638e+003 1.986988030721e+003 -2.853735270363e+003 -3.698486574688e+003 -9.299076066308e+002 -2.736624744385e+003 -2.998591583014e+003 9.773354579272e+002 -1.662073376629e+003 -1.047932624352e+003 -8.571103632692e+002 -4.026791308659e+003 4.355936486256e+003 -7.162737619059e+001 -5.248033430173e+002 -5.259963855654e+002 -1.863536790775e+003 7.413265619565e+002 -1.264839104863e+003 3.854736057571e+003 1.405251399601e+003 3.403183908039e+002 -4.418740728966e+003 6.443852545302e+002 2.388488562123e+003 3.668163503030e+003 4.419435387738e+004
 4.275257796002e+003 -8.702182019228e+003 -5.730588586599e+002 2.058590651523e+003 2.508480021344e+001 6.985142001111e+002 6.407556627710e+002 4.599069459836e+002 -3.183608892750e+003 5.943251786869e+003 -1.465202128873e+003 1.390683389882e+003 -1.978555948430e+002 -4.330661062025e+001 -2.691878825138e+003 -1.702308094498e+003 -6.378109511120e+003 4.301628817742e+003 -1.008228950839e+003 -9.213849992011e+003 6.611603174546e+002 -1.780926021102e+003 -1.182581064202e+003 -2.343537196841e+003 -1.940509225409e+003 -1.421623896059e+003 2.011425916235e+001 -2.024302966807e+003 2.721635149207e+003 7.778503952323e+001 2.396665945237e+003 -3.085096571795e+002 -7.634511172860e+002 3.736185755074e+003 3.906869852386e+004
 -2.241255806017e+003 -9.808366788595e+002 -3.264282120812e+003 2.380116500490e+002 2.327051571316e+002 1.198994017632e+003 -1.206166081277e+003 -2.669556435478e+002 -2.461108839027e+003 2.259401507215e+003 -4.775726156594e+002 2.069913524405e+003 -4.840809775126e+002 -2.929123635893e+003 -1.001351076041e+004 1.614279559640e+003 6.133889551323e+003 -8.338236781724e+003 -3.146989712304e+002 -2.744363803884e+003 2.490095326847e+003 1.998199521365e+003 2.107764542113e+003 -1.846506212029e+003 -5.103483498009e+002 -1.243501538918e+003 -5.089424847458e+003 -6.024441078771e+002 2.245205339417e+003 -3.711050914848e+001 2.654175108839e+003 -3.178882033758e+003 -7.728413692244e+002 4.226983168768e+003 -8.643105783093e+002 3.642504798941e+004
 -2.493931747837e+003 -5.896454923834e+002 1.126826991183e+003 -4.026813230570e+002 4.001063108937e+002 2.112221820341e+003 -1.980432192867e+001 -2.566607525576e+003 3.190850178819e+003 1.719745016798e+003 1.217762482796e+003 8.290379858129e+001 -1.572884015057e+003 -2.010972350762e+003 1.246777978983e+003 -1.019823864473e+003 -1.120453290599e+003 -2.948791476871e+003 -1.025088213640e+004 -1.412591921914e+003 -3.221517137391e+003 -1.142669894461e+003 -7.257784729935e+002 -2.653015013424e+003 -5.823405083804e+003 3.672456113074e+003 -1.645397225963e+003 -2.634870994273e+003 3.106739848714e+003 4.044925124674e+003 -1.160047024572e+004 3.128411849923e+003 2.908325603277e+002 -1.411219390525e+003 -3.812664996709e+003 -1.245067067283e+003 3.626166895708e+004
 -2.773374129465e+003 4.751309081050e+002 -1.442803219982e+003 -1.439822339832e+003 -1.882126743966e+003 2.182341786687e+003 -9.516357672549e+002 -7.100945638479e+003 2.812661558032e+003 8.117852371146e+002 2.059303291237e+003 -4.953020653840e+002 -4.486343620479e+002 -5.859823228073e+003 -6.881091929280e+002 2.411020610591e+003 -1.949491249269e+003 -2.809521283279e+002 -1.314706575959e+003 -1.597682673078e+003 -3.523046132219e+002 -8.441724125158e+002 -7.843562785242e+002 1.957878554900e+003 2.457287426583e+003 -7.633029748077e+003 4.247634550520e+002 -3.625868139269e+003 5.535818636902e+002 5.103464336109e+003 -2.004448875634e+001 -1.772471441863e+003 -4.543586173005e+003 2.829796904980e+003 -3.702725840661e+003 -2.428264322133e+003 -3.408812677083e+003 3.813244302176e+004
 2.053342054853e+003 2.278977673171e+003 5.001858360221e+002 -1.097245563350e+003 -1.033298466777e+003 -1.420608975907e+003 3.378877043075e+003 2.834906142608e+003 -5.801520857821e+003 -4.389377672406e+003 1.684856389212e+003 -1.016124944077e+003 2.078002592367e+003 1.098179559175e+002 -1.874536725769e+003 2.435722596604e+001 -1.015892179373e+003 -5.401419325346e+002 -2.325766514057e+003 -3.663767899932e+003 -5.758002404748e+003 6.501658448860e+002 -4.185030895903e+002 1.292493251202e+003 -2.478784259096e+003 5.494447700372e+003 -7.032197975839e+003 2.997389036417e+003 -3.818836293600e+003 -4.036508157425e+003 -1.708507938502e+003 -1.747642612766e+003 -4.016160843096e+002 9.473418192218e+002 8.254903043432e+002 -3.253819808048e+002 -8.137800768285e+002 3.839962504579e+003 4.442120143243e+004
 8.630408814206e+002 -1.514577263058e+003 5.615337081649e+002 -7.396711537259e+002 1.430025073102e+003 -2.031078665884e+003 -6.503692798038e+003 -1.336963557721e+003 -3.195025277437e+003 4.209946241207e+001 -1.792652516885e+003 4.241835658579e+001 -2.616935780148e+003 -3.228215244420e+003 2.002200032086e+003 -2.512425583857e+003 -2.196973484658e+003 -3.147543370285e+003 -6.918231611998e+003 -1.435497766343e+003 4.942920640065e+003 -3.783144953197e+003 4.268457273159e+003 1.466402438661e+003 5.283994146920e+002 9.637832677715e+002 3.545820986243e+003 -1.006459093563e+004 -5.227479992518e+002 -1.527095227845e+003 -2.689075760629e+003 1.920299351515e+003 -1.407423187762e+002 -3.312719837571e+003 -2.081203593151e+003 2.061122287076e+002 2.215154523418e+002 4.232505150703e+003 -9.180844021216e+002 4.174687395225e+004
 1.906203034398e+003 6.880144849014e+002 6.385070047774e+002 -1.927551285617e+003 -1.010632255356e+003 1.866516239456e+002 -5.368675610193e+003 -6.316025318531e+003 -3.383075978009e+003 -1.795241430944e+003 1.006450768565e+003 -2.287633012885e+002 1.542136183669e+003 -2.411821740319e+003 4.549426602147e+002 -1.700689508904e+002 -1.002077899337e+004 -1.199350535479e+003 1.790493069801e+002 -2.724970177622e+003 1.998722375641e+003 4.167403749818e+003 -4.437568930385e+003 -3.997164187537e+002 6.299447374744e+002 -8.118671084302e+002 -1.585325863737e+003 -1.316715831619e+003 -2.308257224054e+003 1.790287043694e+003 -1.811639443679e+003 -8.214949496689e+002 -1.554751844996e+003 2.021465744507e+003 -2.181700772036e+003 3.018157076496e+003 6.723907283071e+002 -1.079885629241e+003 -2.834496080760e+003 -3.015580743113e+003 3.970202629768e+004
 -1.633636382008e+003 -1.151780509295e+003 3.426390472604e+002 1.233901249711e+003 6.486499319688e+002 2.542227780624e+002 -3.687479254097e+003 -2.290904074811e+003 -5.277003891656e+003 2.102366651809e+003 -6.547347352874e+002 -1.104624415792e+002 -6.454009876978e+002 2.410039319995e+003 -1.510465916725e+003 -1.478453959982e+003 -3.953883555004e+003 -3.567664121136e+003 2.927329502011e+003 5.520267961702e+003 -5.900457431962e+003 4.575665057519e+003 -5.195232465100e+003 -8.580894527790e+003 -2.793140206486e+003 3.486124601780e+002 7.981547725143e+002 1.909913670891e+003 3.277038408467e+003 -3.964671431621e+002 -1.070582658317e+003 2.198588120220e+003 -2.663160239669e+003 -1.192655109237e+003 -1.092539087794e+003 -4.051450131897e+002 -4.597757292867e+003 2.620054603465e+002 -1.002786425618e+004 3.738309208227e+003 -6.389785045517e+002 4.233883852906e+004
 -1.057830510348e+003 7.293169386157e+002 -1.421158745395e+003 -4.832679037557e+003 -4.825456341022e+003 4.272728101058e+003 -1.487201633788e+003 -4.114189205258e+002 -5.202608075244e+002 -2.996182026406e+003 2.215904467434e+003 -5.278916356173e+002 -3.571824437786e+003 3.971258199654e+002 -1.053149347242e+003 -1.625473374570e+002 4.212261954152e+002 1.324875902972e+003 9.633520951697e+002 -7.308034779152e+002 -1.486199071997e+003 -2.391696556894e+002 8.909144195368e+002 1.941170989291e+003 -6.798608862377e+003 4.459739048428e+003 2.097298346956e+003 -8.212847486125e+002 -1.920991617712e+003 6.106146841921e+002 -2.591238112274e+003 -4.123482166466e+002 -7.666178756228e+002 -1.237975991776e+003 5.299612031845e+002 -2.119494950686e+003 -5.593547078712e+002 8.838491538323e+002 -1.547581756785e+003 6.431329602859e+002 -1.181732505476e+003 9.268160195162e+002 4.241538592330e+004
 -1.839132223905e+003 -1.655455361303e+003 -2.330534563122e+002 -3.254529825218e+003 -5.142113633347e+003 6.901247326345e+003 1.121954177145e+003 -2.267452733455e+003 6.921264988259e+002 9.151306519617e+002 -8.757649911823e+003 -5.966731923528e+003 -1.045727752727e+003 -4.461526755805e+002 -4.885465848238e+002 -3.637498459795e+002 5.705270588487e+002 -1.354404097615e+003 4.969317385279e+002 -3.359807974919e+002 1.075650160945e+003 -1.092579988635e+003 -1.788849506309e+003 -1.228844231615e+003 2.469647761989e+003 -1.380957024311e+003 -7.938657384893e+002 5.105960462488e+002 4.460004634668e+002 3.394889655285e+003 4.083664186631e+003 -1.066164702314e+004 -8.146371030248e+002 -6.224026992374e+002 -1.713948455887e+002 7.287184172509e+001 1.434703335985e+003 -9.700100284926e+002 9.079110156325e+002 -4.988624573982e+002 -7.533519608330e+001 -5.112622360475e+002 -8.373711149250e+002 4.062385457452e+004
 -1.657176113230e+003 7.124905837383e+002 1.899964917572e+002 5.384180091265e+002 4.637395186934e+003 -5.154151545489e+003 1.022703861451e+003 -1.640849827027e+003 -1.066337452989e+003 -1.215616088530e+003 -3.774576280584e+003 -5.065088914090e+003 2.386535844865e+003 1.672135562809e+003 -2.133753852370e+003 1.759668330522e+003 4.127807365768e+002 7.567867698011e+002 3.319781584427e+003 -1.150347431847e+003 -5.015592844282e+002 -1.748929324476e+003 -5.614966696887e+002 1.788572289910e+002 4.139095472951e+003 -3.962188424564e+003 -7.478094976893e+003 -2.767889272093e+003 2.407701818842e+003 -4.114448951917e+002 -1.982026764634e+003 8.095844669062e+001 -3.210405140504e+003 1.876274668953e+003 1.538016184760e+003 7.834154138192e+002 -2.252522865959e+002 -3.342001479524e+003 -1.833945823253e+003 1.958710856063e+003 -1.301264297364e+003 3.398965342415e+001 6.807169796077e+002 -1.521169431940e+003 4.560010563459e+004
 -6.693093824775e+002 4.950345176154e+002 4.769181394790e+002 -5.184334083933e+003 -5.662177340956e+003 -2.234877175373e+003 -2.155517122139e+003 -1.157026409664e+003 1.239935175036e+003 -3.256055567802e+003 7.785734659503e+002 4.332996045634e+002 7.537264016830e+002 -2.189954672181e+002 -1.203829925222e+003 -2.458181402436e+003 1.085956865527e+003 2.580446391357e+003 2.596857414921e+003 -1.805791253237e+003 -1.759526192369e+003 -6.946903577388e+003 3.426193388041e+003 -9.227454851957e+002 7.080837131213e+002 2.885786612960e+002 -3.382551854701e+003 -2.258167729688e+003 4.546793862144e+002 1.730778735987e+003 -2.596605973231e+003 -2.315661606290e+003 -5.597425574322e+002 -2.995520621462e+002 1.967046354244e+003 1.344753876035e+003 1.558143122468e+003 -6.408200435893e+002 -2.497195806095e+003 -1.774711822214e+003 -4.908165428480e+001 2.881658515382e+003 -3.083663754941e+003 2.076169005800e+003 -4.301582855438e+002 4.442534350885e+004
 -2.473911258817e+003 -1.899016342894e+003 1.610260911554e+003 -3.218416462821e+003 -7.675925890848e+003 -4.971057750651e+003 2.226181549880e+003 -1.875647461283e+003 -8.865560460181e+002 -2.875153700782e+002 -8.055403171152e+003 6.532117462901e+003 -7.824436236551e+002 1.409916091350e+002 3.076765052312e+002 -1.317960527615e+002 -9.251306574482e+001 -1.356089893527e+003 -2.086669324476e+002 3.432256326680e+002 3.813407871247e+002 1.962581893952e+003 -1.962723142601e+003 3.028600280974e+002 -9.583984595316e+002 6.230977128543e+000 1.706329637269e+003 4.070704756265e+003 -8.282193319336e+003 1.235653009024e+003 2.227223272366e+003 -1.182310486957e+003 -3.731699646612e+003 -1.364386693881e+003 -4.846561667126e+002 5.747906948600e+002 -4.040709477168e+002 -9.504857681715e+001 3.574819643428e+002 1.807237553935e+003 -4.624567123409e+002 -1.061932580387e+003 1.127721014398e+003 -1.812152365031e+003 -2.387077227089e+002 1.111472217745e+003 4.041484335876e+004
 1.575795494270e+003 -3.857518510118e+002 -1.372982723672e+003 -1.033551432258e+003 -4.686169982321e+003 -3.464593244231e+003 -1.130870670306e+003 9.857048228330e+002 1.643945925980e+002 2.269450334602e+003 4.275968530478e+003 -4.841190462546e+003 -1.691047347517e+003 -1.794277480951e+003 7.315010229304e+002 -2.508622084418e+003 1.182246801612e+002 -1.493651246631e+003 -1.527503392269e+003 8.947305126759e+001 -9.007598819085e+001 -5.753797852060e+003 3.359125515094e+003 -7.643141477363e+003 2.886414586529e+003 5.408545999750e+002 -4.210799911784e+002 5.154475499651e+002 1.949596677883e+003 -2.989217219400e+003 2.578183209474e+003 -3.314933519778e+003 -1.097750159628e+003 -1.845233065351e+003 -5.982278193928e+002 -1.045318710559e+003 1.705761381671e+003 2.224161613650e+003 2.986202217646e+002 -2.017090434869e+003 1.694153428235e+003 -8.789636250355e+002 2.534366488071e+003 -3.531017262998e+002 -1.135894779309e+004 -2.537414092466e+003 1.272770374935e+003 4.212068090262e+004
 -9.872685443668e+002 -1.658122415163e+003 3.750676344887e+003 -2.286352339558e+002 -1.876038959620e+003 -1.176126944322e+003 1.429456278102e+003 -1.654340809989e+002 -2.528439728453e+001 -5.232618346555e+003 2.222350249284e+003 -7.944277317720e+003 -3.753392779350e+002 1.466941280864e+003 1.413630369514e+003 -8.987242254848e+003 5.720976960732e+003 4.604920102888e+001 -1.978472160800e+003 2.094802567177e+003 4.384205205741e+002 7.540405314824e+002 6.526928986959e+002 1.862087904660e+002 -1.257317067291e+003 -7.937204325232e+002 -3.369559260118e+002 -1.257679957115e+002 -2.008777481884e+003 1.177449556012e+003 -2.769710586513e+003 3.440084876312e+002 -1.307868783820e+003 -9.996882944817e+003 7.329548404326e+001 6.778871480717e+003 -8.962375601266e+002 -2.122598702841e+003 -8.909469363977e+001 1.301242420441e+002 1.254681277180e+003 1.098417187392e+003 -4.283331749733e+002 1.115229612028e+003 -2.966630498066e+003 -8.160332191648e+003 -5.031312296591e+003 -1.025369125439e+003 3.592711231731e+004
 -3.006654859440e+003 -7.076881044301e+003 6.026077887101e+003 1.395984517910e+003 -4.585738527730e+002 -1.797239265291e+003 -6.735406929989e+001 1.446051302046e+003 -4.035564446158e+002 3.534416688126e+003 -2.956911230216e+003 2.537693675296e+003 -1.685851265127e+003 -9.622079704407e+002 1.051634888774e+003 3.898308300321e+003 -4.733937320571e+003 -1.551864830805e+003 -1.186792445337e+003 -4.186356724448e+002 -8.550258502684e+002 1.622425502371e+003 -8.810935031720e+003 2.419158809576e+003 9.573149196286e+002 8.118117479630e+001 1.660478733434e+003 4.261033713173e+002 -3.746488592128e+003 -3.541946841007e+003 9.177612344871e+002 -2.085170255206e+002 1.947221604921e+003 -2.912925304648e+003 -1.597381078148e+003 -1.191714653962e+003 1.985455761976e+002 8.036786247920e+002 7.079125444758e+002 7.072203624754e+002 -1.744714531638e+003 -1.880245062399e+003 6.776699697496e+002 -5.542330679309e+002 1.013464970096e+003 -3.813921512023e+003 -4.450025438326e+003 -3.592496270949e+003 -2.888029011981e+003 4.258290610116e+004
 3.236493644862e+003 2.515136033728e+003 -7.199683974088e+003 2.315697860278e+003 5.565145001815e+002 -6.040235255494e+002 1.641706049143e+003 1.677519702124e+003 1.548055752066e+002 -2.935835262723e+003 -8.918631232293e+002 -8.424038193693e+003 -2.696634036628e+002 -2.074950122770e+003 -1.120565681134e+003 -2.430935164354e+003 8.052871911861e+002 -3.357698889135e+003 -1.805139045333e+003 4.236021829291e+002 -9.698859009614e+002 -1.497310842375e+003 3.924530461832e+003 -7.118369426316e+003 -2.503983501500e+002 -1.376825460683e+003 4.526665445410e+003 6.813833164054e+002 4.064923131039e+003 -1.762975965876e+003 3.419103892979e+003 3.522647561230e+003 -7.024856671380e+001 3.866879298716e+003 -1.103296449748e+003 -2.065197160501e+003 -2.245597679085e+003 2.028360906807e+003 1.284790462654e+003 -2.904705016969e+003 1.740306876939e+003 -2.829198472445e+003 6.011914605409e+002 -3.733734583729e+003 -2.740214473632e+003 1.400171537036e+003 -4.022542371417e+003 -2.004103905139e+003 -2.920836448450e+003 3.901451432218e+002 4.794082230243e+004
 -6.198978896162e+002 -9.210848408536e+002 -2.317174800003e+003 -1.279194496714e+003 -4.201532915755e+002 4.630638964005e+002 -1.668220682022e+003 4.015251589303e+002 -7.618798163523e+002 -8.071971264310e+003 1.829073493279e+003 7.791154233450e+003 -8.443955973530e+003 6.752047090334e+003 8.930322627373e+002 -1.170003297816e+003 4.924050272975e+002 -1.160570846254e+003 -2.083553977895e+003 1.556747271061e+003 1.791648382422e+002 -5.545387524280e+001 5.331812554257e+002 -1.817614711240e+002 1.085397521947e+003 -4.331166660368e+001 -2.007029081952e+003 2.345794811502e+002 -4.412892929265e+001 -5.823305367751e+002 1.744554504053e+002 -4.376409593488e+003 1.160532436561e+003 -5.594340947693e+003 -2.232427862610e+002 -8.930351575956e+003 1.390952949564e+003 1.568115618966e+003 6.464150813821e+002 -9.294804791929e+002 7.670797532972e+002 -3.636185356712e+002 -8.860082758969e+003 -5.410363889563e+003 2.876245814602e+003 -2.377771844322e+003 -3.130012366798e+002 1.379201875765e+003 1.185198064979e+003 -2.808721304253e+002 2.248169588227e+003 3.549398822675e+004
 2.567366821088e+001 -5.756722929546e+003 -4.821750639271e+003 2.250924746947e+003 6.282117495387e+001 -8.992807655624e+002 6.107820550503e+002 2.286040728948e+003 1.896718004051e+003 3.009211204460e+003 -2.544404677803e+003 -2.536926922331e+003 3.916141540137e+003 -6.867135247743e+003 2.103043715856e+003 -2.274370657619e+003 -7.770512023799e+002 -1.718902274223e+003 -1.707430299979e+003 -3.644081085844e+002 6.945009040381e+002 5.552904231096e+002 -1.601585498067e+002 -3.956611221832e+003 -2.175317732145e+003 -9.449510205192e+003 2.933637994073e+002 1.662190694442e+003 -2.235704584617e+001 -2.108795148882e+003 -2.021528432273e+003 2.371227452913e+002 3.597673239197e+003 -3.725067787504e+003 -1.501288930770e+003 1.510881084436e+003 -8.612212612319e+001 -2.599386382432e+003 2.806505602320e+003 -1.894523585848e+003 -7.141672423065e+000 -9.235148519129e+002 -2.507783076602e+003 -4.418768017693e+003 2.624233918940e+003 1.271295833677e+003 -1.572105693354e+003 -9.944192030178e+001 3.233995832470e+002 -1.222262693973e+003 -4.008489224825e+003 1.354521033009e+002 4.374626348483e+004