#BIOSYM hessian 1
@Type: Hessian Update
@Units
 distance: 	A
 energy: 	Kcal/Mol
#header
@natom 19

#label
L1      L2      L3      L4      L5      L6      L7      L8      L9      L10     L11     L12     L13     L14     L15     L16     L17     L18     L19

#element
Li Li Li Li Li Li Li Li Li Li Li Li Li Li Li Li Li Li Li

#matrix
57
 4.499809568187E+02
 9.302335553878E+01 2.086937988140E+02
 -1.416187658635E+02 -1.536295253859E+02 2.404551127264E+02
 -4.994978482075E+01 -2.333851291449E+01 1.968505740485E+01 5.098214503755E+01
 -5.401630848852E+01 -2.310296569201E+01 6.512436854860E+01 2.290536351623E+01 1.024690061793E+02
 5.296360478131E+01 4.820486750524E+00 3.164528719847E+01 -5.320926835484E+00 5.323279008260E+01 1.247988405328E+02
 1.116896530048E+00 3.978293330714E+01 7.426852421554E+01 3.051091787983E+01 1.163556183549E+02 -5.184203732508E+01 1.118127606075E+03
 -3.784341101280E+01 5.482775394876E+00 4.883529576234E+00 -6.732606502590E+00 -3.375956992163E+01 2.361839813237E+01 -2.453925612076E+02 1.778654262208E+02
 4.374822966317E+01 -1.956916176964E+01 -3.591732303517E+01 8.661969978527E+00 -1.095170926733E+01 -3.985548166714E+01 8.635192774134E+01 -1.415666001618E+02 2.159494253098E+02
 5.660826906358E+01 -3.107104090431E+01 -6.159811942737E+01 -8.014568183581E+00 -3.565898558486E+01 9.858838987526E+01 -7.731159708851E+02 9.326705361541E+01 6.918016896679E+01 8.325864820647E+02
 -2.403505112676E+01 -3.581531741031E-01 5.490081018185E+01 2.821107806196E+01 6.875223035547E+01 1.260825641599E+02 -1.728500961485E+02 4.108474565402E+01 -1.608815441881E+01 3.000613268070E+02 4.740867398830E+02
 1.242080757715E+01 1.306196004804E+01 3.116862834009E+01 -5.554913018807E-01 3.536833519514E+01 6.051388681885E+00 2.797933531931E+02 -3.775934574648E+01 -2.217577828073E+01 -2.005135709688E+02 -5.570189231011E+01 1.197086745914E+02
 -1.499375332037E+01 -5.232395687893E+00 -1.569968658520E+01 -2.053973613031E+01 -5.779000426743E+01 -8.012592568598E+01 5.832007437178E+01 -9.822784877722E+00 5.155580680989E+00 -1.810217816887E+02 -2.382986190931E+02 1.056535463101E+01 1.841851670088E+02
 1.081284161182E+01 -2.172234949078E+01 -5.892948560602E+01 -3.982644773868E+00 -3.285710046215E+01 -1.433234749316E+02 2.034592567383E+02 -9.485513962137E+01 9.403762969435E+01 -2.995332557767E+02 -4.935574270172E+02 2.702678904745E+01 2.200758648525E+02 8.187874803536E+02
 9.855240761288E+00 -5.267911859429E-01 -4.042856046842E-01 -2.693503151221E+00 -6.858763606870E+00 1.022452775673E+01 -3.343579819519E+01 1.623713863656E+01 -1.942710203641E+01 1.977052672602E+01 2.808563889848E+01 -6.826393051439E+00 -1.643377950151E+01 -9.224184788271E+01 6.058991334611E+01
 -8.317426145717E+01 -4.223671852688E+01 7.048184969610E+01 -5.335728133211E-01 -1.107908214769E+01 -2.387168940795E+01 -4.287051743371E+00 1.399131107088E+01 -1.235253776378E+01 -1.438396124122E+01 3.635546303264E+01 -6.105773159908E+00 -1.207753611012E+01 -4.037948773387E+01 4.921224993056E+00 1.237622291023E+02
 -5.683851400796E+01 -3.751226531529E+01 5.114058857433E+01 9.146599784281E-01 1.043505114648E+01 -4.010591250010E-01 -8.383254727798E+01 -9.383474427022E+00 4.465962073710E+01 9.951045719114E+01 1.377406667052E+01 -3.741628305007E+01 -3.526490650229E+00 5.240748820225E+01 -2.403522478764E+00 -4.215585595776E+01 3.062229415605E+02
 4.954203021911E+00 1.985638369994E+01 -4.214296148947E+01 3.214363876824E+00 -2.134860308574E+01 -2.733698758608E+01 3.569337513525E+01 -1.023981154634E+01 -9.600125970739E+00 -3.886224121116E+01 -2.643515357498E+00 -6.978521818542E+00 -1.171794797853E+00 -1.144946375952E+01 5.060529327355E-01 2.725371122977E+01 -1.071988495323E+02 9.936024214708E+01
 1.577250533319E+01 3.167182415550E+01 1.618054175060E+00 4.248482964263E+00 -2.430438303784E+00 1.653990381908E+00 6.261791288255E+01 2.120289886321E+01 -2.464801264635E+01 -4.883255167940E+01 2.376814744042E+01 2.528026426241E+01 -4.830394140682E+00 -4.718812556990E+01 1.104094842298E+01 -3.187425632907E+01 1.044144195429E+02 -4.243250658477E+01 1.942669933916E+02
 -6.881794855508E+00 3.330643251139E+01 1.326250413079E+01 -1.374782441715E+01 -4.847809854399E+01 -4.420175385704E+01 -2.988352748442E+01 3.269816463923E+01 -1.333945381788E+01 1.099031421784E+00 -2.169591165330E+00 -7.663666978838E+00 -1.558481112771E+00 8.458084441411E+00 1.392211721380E+01 3.071095037988E+01 5.683174320574E+01 3.066783618584E+01 8.146328761036E+01 7.710433807020E+02
 -7.610196080079E+00 8.772595387405E+00 -9.322823614516E-01 5.245208367017E+00 6.216064182850E+00 -4.820002253584E+00 2.560750317747E+01 1.840615190570E+00 -3.167174145771E+00 -3.743553369992E+01 -1.574551965936E+01 3.172031407966E+00 1.672134331226E+01 4.534180063567E+01 -2.614453072520E+01 -1.991093167005E+01 4.326509128490E+01 -2.341458090047E+01 2.760545359234E+01 -7.805214775532E+01 6.601223872232E+01
 1.627877907508E+01 1.395201672105E+01 -2.866256143766E+01 -4.289617152946E+00 -1.651628533579E+01 1.322257228695E+01 -7.168838111664E+01 1.858372352291E+01 8.579387549523E+00 1.378296271263E+02 1.127168150396E+02 -5.385597730361E+00 -7.128201140457E+01 -1.823060418198E+02 1.707927528620E+01 8.349394741183E+00 -2.880592228638E+01 2.943918032634E+01 5.954355500885E+00 1.870376259217E+02 -4.213404542862E+01 1.675445967423E+02
 4.726173884172E+00 1.280028663798E+01 -1.655726732123E+01 1.077228602331E+01 3.436982835788E+01 4.233397615456E+01 5.331829801230E+01 1.064928557274E+01 -1.166519763910E+01 3.131586573878E+01 9.378167146941E+01 3.739694557498E+01 -5.743785704563E+01 -1.698522196924E+02 1.176267432308E+01 -5.885090344387E+01 6.171793704916E+01 -4.747068435684E+01 1.106517946243E+02 -2.214740134631E+02 5.431983802539E+01 1.502567331111E+01 2.923679839417E+02
 -6.417406916090E+00 -1.786188459106E+01 2.409880830571E+01 -6.568728913399E+00 -1.964527469178E+01 -3.758157534645E+01 -9.099112577759E+00 -1.284460750164E+01 -1.001669340236E+00 -8.851983618411E+01 -1.215815491958E+02 -2.294607443869E+01 6.965427901726E+01 1.970022506653E+02 -1.052977343435E+01 4.528605889506E+01 -4.608712734212E+01 2.821101462434E+01 -9.748378303010E+01 1.077932236413E+02 -3.022856763664E+01 -5.543769864844E+01 -2.161266222954E+02 2.181740872591E+02
 -4.348414427500E+01 -3.162496757471E+01 1.852684023686E+01 1.644763820401E+01 6.887565677685E+01 4.256952627661E+01 3.445405699045E+01 -3.318858990494E+01 2.796421491495E+01 1.908644197219E+01 3.452606454312E+01 1.081641370675E+00 -2.541612672476E+01 -2.989246449293E+01 1.211461990909E+00 -5.621225385846E+01 -2.154941767028E+01 5.175850173999E+00 -4.715360971904E+01 5.444876604613E+01 -3.182782945022E+01 2.871058903624E+01 -1.645639504608E+00 -1.202459477657E+01 2.568048906273E+02
 2.114099763060E+01 -4.014823844874E+00 8.866438372218E+00 -6.816325303841E+00 3.281218544819E+00 2.771621229797E+00 2.763228806712E+01 -1.957349179060E+01 8.080380796656E+00 -3.561541170417E+01 -2.466421655521E+01 -2.000657177511E+00 2.089304422218E+01 4.517788088698E+01 -1.944643970056E+00 1.396620776836E+01 9.664876170669E-01 -7.067024311632E+00 -1.507197901992E+01 -5.000381866108E+01 5.653634159129E+00 -5.664317662370E+01 -2.430587324726E+01 3.973854265257E+01 -2.054777048999E+01 7.532267102121E+01
 -7.012987178274E+01 -2.305787890722E+01 1.397419900705E+01 2.558227806134E+01 3.100445312675E+01 5.296011093436E+00 9.783618018282E+00 -1.066900339325E+01 2.020439254347E+01 1.976285954069E+01 2.350978940173E+00 -2.569043480293E+00 -1.777508836771E+01 7.368481134879E+00 -2.291256627524E+00 -6.353527731819E+01 5.537032814203E+01 -1.751645923341E+01 -7.558246405731E+00 5.536551666481E+01 -8.292272179669E+00 4.500764279498E+01 1.095148242562E+01 -2.904853316353E+01 1.121070628959E+02 -8.711810186208E+01 2.585651842018E+02
 -2.726359023344E+01 -2.667989441189E+01 2.348740538403E+01 -1.036064269923E+01 -1.875731925221E+01 -1.192200273590E+01 -2.276738698227E+01 -3.282514289271E+01 6.070829553442E+01 9.414085894915E+01 3.800035984221E+01 -1.474343246394E+01 -1.676412968692E+01 -6.607015014467E+01 7.722545708527E+00 2.497977909927E+01 6.551157207595E+01 -1.584312830473E+01 -4.495814916860E+00 1.983421441103E+01 -1.183820177758E+01 3.827911027455E+01 -1.257419932468E+00 -1.683897252315E+01 -2.424260041069E+01 -2.068639159579E+01 4.799629880431E+01 1.173115958255E+02
 1.149938053738E+01 3.369538729547E+01 9.026734421501E+00 3.812206736026E+00 5.059829189327E+01 6.512121396548E+01 3.625479878060E+01 8.048173292813E+01 -1.495188384369E+02 -1.587809813988E+02 -5.609609935818E+01 5.022220162020E+01 1.186970958268E+01 3.801018749688E+01 -3.567529331552E+00 -8.150896891926E+01 3.012023073218E+01 -5.336695538155E+01 1.881996086427E+01 3.223067614504E+00 6.672021631263E+00 -5.342243902000E+01 -1.580860739017E+01 3.753317619330E+01 3.073967935330E+01 -3.127128229720E+00 7.707753518142E+01 -5.401321516178E+01 4.358523567868E+02
 2.054448091809E+01 3.606853159603E+01 -4.244479322404E+01 6.794043823487E+00 3.473239478149E+01 6.015573734457E+00 -2.450468195932E+01 6.311341149114E+01 -9.522891856504E+01 -8.881794748482E+01 -3.125286103956E+01 1.279160366575E+01 1.046538245104E+01 4.933904174772E+01 -4.172667027196E+00 -3.235056201188E+01 -8.408126659895E+01 2.345510668889E+01 1.497759550974E+01 1.725922765292E+01 8.412522637406E+00 -2.299851490467E+01 2.158039084595E+01 -1.923799819633E+00 9.217770998228E+01 1.937025370680E+01 -6.888725291035E+01 -1.402526041112E+02 6.356865886141E+01 2.779771374534E+02
 -4.239802876411E+01 -3.217185794154E+01 1.147005537640E+01 2.069875115011E+00 3.261931883884E+00 -2.760370767850E+00 -2.286241825010E+01 -2.479887401431E+01 4.026463051632E+01 -5.802761541751E-01 4.974231424029E+01 -3.320663562672E+01 -1.125694793659E+01 -4.282282785125E+01 2.223282581876E+00 -7.543245804925E+00 3.826553296886E+01 -7.201742087985E+00 -2.189841365811E+01 -5.289022673148E+01 1.242537068306E+01 -7.271764217991E+00 1.474447800483E+01 -7.870671624064E+00 1.383573711683E+01 1.692200343364E+00 3.751223541465E+01 1.806901730214E+01 -1.464732777562E+00 -3.520576242864E+01 1.145946775947E+02
 3.483585806129E+01 -3.982066622589E+01 -2.720961244019E+01 -2.910916775097E+01 -5.477884960725E+01 -3.619381529601E+01 -1.329139684898E+02 -4.315435775469E+01 8.241763340879E+01 1.352747845315E+02 -1.024267791994E+02 -2.132545392286E+01 6.206612475140E+01 2.057043340334E+01 1.185825488712E+01 -1.088077664477E+01 1.191431914714E+01 -2.364479550696E+01 -3.427642613024E+01 -4.747067321231E+01 -1.346220015947E+01 2.564750239632E+01 1.690320823627E+01 -2.288347764203E+01 1.959284488941E+01 -1.788799703106E+01 2.491741804239E+01 7.251124929106E+01 -1.188200105110E+02 -6.405443458252E+01 1.421670086882E+00 2.666982497950E+02
 -1.407397926590E+01 -5.058430812124E+00 1.548185184405E+01 2.986693255270E+01 1.403291155661E+01 -8.981101031357E-01 7.170994726466E+01 2.489222345203E+00 -7.807414293461E+00 -4.758598713097E+01 2.088751076952E+01 -1.237612240070E+00 -1.956859447962E+01 5.135821724528E+00 -4.075427972600E+00 1.727588830043E+01 -8.618327410476E+01 3.649217886091E+01 -6.918879229492E+01 1.784569718099E+01 -1.841436681527E+01 -2.869152840575E+00 -8.954082938076E+01 7.265839000834E+01 1.166143180563E+01 -4.540994594398E+00 4.417567527273E+01 -7.311513187432E+00 2.819399171040E+01 -3.157206303967E+01 4.998919217003E+00 -9.006807915561E+01 1.748076438139E+02
 9.635121340181E+00 1.121738229375E+00 -5.007970736125E-01 -5.692214766867E+00 -2.219836043060E+00 -3.955765234251E-02 4.764670653357E+00 -6.762219099602E+00 3.470231796000E+00 -7.635839713507E+00 -4.888339717143E+00 8.602650813771E-01 4.691179179573E+00 -2.906461366504E+00 -2.044183927710E-01 3.823867639221E+00 -1.827000856901E+01 5.163118773944E+00 -2.740330436681E+01 2.233963829805E+00 -1.906265927566E+01 -2.899364180444E+00 -3.240625813437E+01 1.890643595948E+01 3.858192523540E+00 2.577705731098E+00 1.289156582970E+01 8.646857069230E+00 1.947229518894E+01 -1.063128409274E+01 3.783292020409E+00 4.056440685530E+00 1.079184954085E+01 4.057463702892E+01
 -1.004484390788E+01 -1.965955980625E+00 3.718034702436E+00 1.792101574533E-01 -3.971550031409E+00 -3.553290121477E+00 -1.119097294198E+00 1.102509114546E+00 -1.949082676201E+00 4.474761970131E+00 1.570629056970E+01 1.901313550058E+00 -5.970822119781E+00 -1.800297062120E+01 3.427940783647E-01 9.583726308757E+00 -4.195726281317E+00 3.335728185052E+00 1.872682094760E+00 1.080470092458E+00 -5.366285869875E+00 7.099813020043E+00 -1.122768509199E+01 -1.018143808787E+01 -6.589612073319E+00 -1.115532625173E+01 7.842664311012E+00 1.216394866625E+01 -1.321181142821E+00 -1.458922654148E+01 -1.240509520991E+00 1.527115058041E+00 1.915067241643E+00 7.366216334287E+00 3.135078398652E+01
 -7.956997490222E+00 -1.706124818000E+00 -3.394224576696E+00 1.145925758740E+00 -9.506108317100E-02 -2.405416840861E+00 -1.386997530681E+01 -5.497424791473E+00 6.752124198929E+00 7.305815506758E+00 -1.442802607873E+01 -8.620407484102E+00 8.874109201365E+00 3.324772041097E+01 -3.010977363624E+00 -5.643814850362E+00 6.792195650456E+00 -5.360940578226E-02 -8.213994472999E+00 -7.911726361376E+00 9.356363509605E-01 -1.392926353284E+01 -5.647437743888E+00 3.780100299018E+00 8.147384739958E+00 5.297168528556E+00 -2.907904115463E+00 -7.234564753318E+00 -1.777287025809E+01 8.230031414574E+00 1.863954887403E+00 4.004932482592E+00 7.902000009862E-01 -5.022720785553E+00 -3.136826845589E+00 4.032837299810E+01
 6.960412824774E+00 1.572092010315E+01 -5.921043210450E+00 -9.152447655190E+00 7.988402090636E+00 5.427569569563E+00 -2.708924300464E+00 -3.502693143734E-01 -2.171734777754E+01 -1.323266022425E+01 6.953952839230E+00 4.875355212455E+00 -1.023133549829E+01 -2.168405886844E+01 1.402961311044E+01 -3.103896777718E+00 -7.646823146010E+00 7.037677835136E-02 1.889340895611E-01 -3.915390522282E+00 1.330874702206E-01 -1.038533270676E+00 4.113234853276E+00 -3.581975458842E-02 1.088391713330E+00 -6.544047987303E-01 -3.770194717862E+00 -3.996136923723E+00 1.468080771153E+01 8.751660063485E+00 -4.022499409002E+00 -3.447911423398E+00 -4.871080032942E+00 -1.262404998088E+00 -8.496256344574E-01 -1.101990654405E-01 2.742055790428E+01
 9.749002222176E+00 -6.116239768020E+01 2.748945306903E+01 7.200497618080E+00 -3.868674954822E+00 -3.870200573180E-01 -4.735109538069E+01 2.913891204145E+00 -7.727362496694E+00 3.094415169570E+01 -1.219490980993E+01 -8.658394299474E+00 -6.344102165314E+00 1.196318946353E+01 2.707217001089E+00 2.266652810794E+00 5.379688660542E+00 -4.353117803102E+00 -5.123976397991E+00 8.469671565837E+00 -6.315551522250E+00 7.628413376326E+00 -4.979733677537E+00 1.194330730660E+00 -9.193571668780E+00 -3.180573287045E-01 -1.557963801591E+00 -4.792142299147E+00 1.953818847953E+01 2.502559940299E+00 2.509137857422E+00 -3.924465908591E+00 -1.337237527678E+00 1.340085896620E+00 1.386295210600E+00 2.444441532998E-01 -4.186881022397E+00 6.236183029757E+01
 1.300559402179E+01 3.492785504617E+01 -1.936147363744E+01 -3.855985876020E+00 2.929393589194E+00 7.614593726992E-01 3.593348061193E+01 -1.963796000161E+01 9.713467068620E+00 -1.932652050072E+01 -2.933621029349E+00 3.440889607541E+00 1.357412123957E+01 2.875191744903E-01 -1.355211157486E+01 -1.136191297542E+01 -4.617534392328E+00 4.407648907591E+00 5.557527711283E+00 -5.094237083045E+00 2.064802348068E+00 -7.010140476477E+00 3.134819552121E+00 -1.361585650555E+00 1.596105179017E+01 2.366023006688E+00 9.716279751701E-01 -1.758450080195E+00 -1.246264241144E+01 4.745400677547E+00 -6.593223683500E+00 3.212177295198E+00 -9.341799599920E+00 2.813474681430E-01 -2.144701489352E-01 -8.133188833736E-01 1.977918310099E+00 -2.272806671938E+01 4.601328133078E+01
 1.400190937910E+00 4.526683590521E+01 -5.664409748737E+01 5.656159408211E-01 -1.335560787597E+01 -4.384607460209E-01 -5.059807421315E+01 1.788056859347E+01 -7.702719594749E+00 4.956222889066E+01 2.660717492880E+01 -1.514951957716E+01 -1.778597379217E+01 -3.644293669040E+01 1.537964085310E+00 -1.245510540265E+01 -1.121619589611E+01 1.259137533794E+01 4.678988659770E+00 -4.806014788187E+00 4.908968351697E+00 1.579451123569E+01 2.319500761398E+01 -2.340270144798E+01 -1.734581483398E+01 -7.516592098593E+00 -6.535086055012E+00 -8.126714059797E+00 -1.443596252006E+01 6.259964539391E+00 -1.357991714011E+00 -1.048662322624E+01 -1.401659049533E+00 -2.777963736974E+00 1.560992977799E+00 1.668085440890E+00 -1.274971328640E+00 -4.370795333640E+00 7.318978932062E-01 5.098023556119E+01
 1.040283273936E+02 -5.381448948384E+01 6.175985534299E+01 -4.510155859713E+00 1.056473256559E+01 4.088708833336E+01 -4.308959410936E+01 -2.197656712461E+00 -3.036406603437E+00 3.260273605178E+01 3.900804517445E+01 -2.836466180628E+00 -1.522505363436E+01 -5.694351904605E+01 1.228329212048E+01 6.573817621568E+00 -3.770277745830E+00 -1.634006507166E+01 6.495812830446E+00 -1.032773826323E-01 -1.466077092751E+01 -8.903756536847E+00 -1.609720500131E+01 1.992885964483E+01 1.052461991431E+01 9.703772647736E+00 -1.720129365156E+01 -5.793649208751E+00 -4.251123322130E+00 3.532123195455E-01 -1.080091624732E+01 2.153927485789E+01 -4.597420657610E+00 5.458597434141E+00 -2.397821811641E+00 -8.545725169926E+00 4.751493246518E+00 1.125159812578E+01 1.497885047781E+00 -3.900039625999E+01 1.500751527887E+02
 -9.444775549052E+01 6.738079028771E+01 -7.440475468742E+01 5.699557565754E+00 -3.528349990011E+00 -4.078763769266E+01 3.067223539482E+01 9.194770747137E+00 -1.088854697291E+01 -4.376978971280E+01 -3.584064914632E+01 5.679760679260E+00 9.910156953400E+00 5.116183201751E+01 -1.104783683084E+01 -7.585583382870E+00 -4.373091254265E+00 1.648045784750E+01 4.550816134974E+00 -6.919546569784E+00 8.741593479286E+00 9.811217051501E+00 1.664807172289E+01 -2.222932722909E+01 -2.021040209545E+00 -1.841519764583E+01 7.475865376702E+00 -1.417854650861E+01 3.138785904740E+01 2.615408296404E+01 -1.177731122890E+00 -2.228344541587E+01 -1.192248430128E+01 -3.404675249188E+00 1.983566798727E+00 -5.242594238811E-01 1.729315128331E-01 -9.698086384068E+00 -4.428594636771E-01 2.845463630203E+01 -8.075634671474E+01 1.196245104765E+02
 -4.399112041522E+01 2.059634588023E+01 -5.093646836155E+00 -2.196826098427E+01 -4.881666534583E+01 1.036261552769E+01 -3.731881329507E+02 1.780326348593E+02 -1.703254883730E+02 1.111176984331E+02 -9.709195505037E+00 -5.451827035024E+01 2.619238575621E+01 -4.939987481003E+01 1.719016434702E+01 1.837120879236E+01 -2.305909141101E+01 1.984377947999E+00 2.075347776065E+01 4.289383188225E+01 5.035222470472E+00 -3.260888507234E+00 -1.540100585647E+01 1.362719952269E+01 -6.146085105978E+01 -2.290820126054E+01 -2.617877951389E+01 -5.462667921681E+01 4.730948508255E+01 9.478253200942E+01 -4.653009168157E+01 1.054229644529E+00 -3.826312267833E+01 -1.274233923493E+01 -3.819803584519E-01 2.936649888051E+00 1.306497911039E+01 -1.883775412175E-02 -1.286510559818E+01 1.390648970339E+01 1.317500639406E+01 5.770864996411E+00 3.207430615169E+02
 -2.800490201694E+00 -1.152305272221E+01 -4.511118582990E+01 1.503573286833E+01 -5.264600487457E+01 -1.314397571456E+02 2.417008374103E+02 -1.303382493461E+02 1.628606780759E+02 -1.466112980865E+02 -1.510963291085E+02 1.280086058493E+01 8.924203830180E+01 2.230972241949E+02 -2.016095969447E+01 2.828430599071E+01 -3.632465823388E+01 5.999862126360E+01 1.541221225146E+01 2.152959559357E+01 1.612939430978E+01 -1.223767360124E+01 -7.065472348568E+00 2.935074786893E+00 -3.082772475849E+01 -3.455491220438E+00 -1.154163896605E+01 5.828168594265E+00 -3.038235291731E+02 -2.892786920387E+01 8.694363965071E+00 5.806814901733E+01 8.294969960494E+00 -1.661563644257E+01 -3.234260636202E+00 2.164719114438E+01 -1.704328317098E+01 -1.509928252195E+01 1.646407121940E+01 -1.319668069965E+01 -4.559990554856E+01 7.031679893984E+00 -9.733385938056E+01 4.293627937857E+02
 -1.070245737930E+01 2.045421423610E+01 -3.770009876994E+01 -3.500131767844E+01 -8.292354185477E+01 -1.594134478542E+01 -3.778026972776E+02 1.754916240625E+02 -1.630165235010E+02 8.948380592626E+01 -4.922033699430E+01 -6.308470614986E+01 5.425194283925E+01 -3.325143339644E+01 1.930807963110E+01 2.081245503620E+01 -3.283113144080E+01 7.640239437561E-01 -1.079965683735E+01 3.525464933104E+01 -8.058773568793E+00 -2.948891633328E+00 -4.798882551076E+01 4.440016727358E+01 -7.700438563901E+01 -5.100585091947E+00 -4.951521536689E+01 -3.870459359599E+01 1.103105190550E+02 7.061530561427E+01 -1.937766319305E+01 1.558599614168E+01 -3.083313457227E+01 5.355835714996E+00 2.979688839079E+00 -3.762479071506E+00 1.097611973720E+01 1.510176416407E+01 -2.137269398506E+01 2.168368254755E+01 2.858826386677E+00 1.857175780939E+01 2.384320207008E+02 -1.542828316230E+02 3.018022551313E+02
 -3.746516422621E+02 -1.236322152407E+02 1.948758795438E+02 2.669720877222E+01 6.909020610324E+01 -1.622919527262E+01 1.718235402161E+01 2.939624758879E+01 -4.654627705728E+01 -4.440231514035E+01 4.119917002301E+01 4.837585479743E+00 -1.095286476111E+01 1.684903634473E+00 -1.075848156867E+01 9.186811607724E+01 8.357742701244E+01 -3.265126158748E+01 -1.473962937989E+01 2.139290471845E+01 6.188266165503E+00 -2.266463101774E+01 -9.641644590228E+00 1.138333096561E+01 5.734620218637E+01 -1.083004662104E+01 5.613633014154E+01 3.115177944836E+01 -1.056706635200E+01 -2.205005564608E+01 2.450817811944E+01 -2.159985394321E+01 -7.208305139472E+00 -1.038626849861E+01 5.785253685664E+00 6.309793827792E+00 -5.322540925227E+00 -2.615762913862E+00 -1.548156064844E+01 -3.178324596450E+01 -4.945914027950E+01 4.388903498795E+01 3.006823818905E+01 -3.453031278971E+01 -1.175789078271E+01 3.952057249323E+02
 -1.495575081144E+02 -4.926936744517E+01 1.014822220638E+02 -1.086816093195E+01 -8.792371148118E+00 -4.277314759900E+00 1.622423966377E+01 4.870893191235E+01 -8.460909993193E+01 -1.117962583791E+02 3.640784997093E+01 1.478365410694E+01 5.292921833605E+01 -2.805981847573E+02 5.397842804720E+01 4.613110536112E+01 -2.986881453375E+01 2.260782257047E+00 1.036207982743E+01 -2.670572961363E+01 -1.757287965532E+01 2.056744293517E+01 4.071127362829E+01 -2.898745630926E+01 3.451416203988E+01 -4.264051587496E+00 4.635775725195E+00 3.201323533818E+01 7.340964257429E+00 -1.670819855429E+01 3.930794383116E+01 5.154293324467E+01 -1.644055505316E+01 5.797035459842E+00 3.534898999816E+00 -1.285619057007E+01 1.232784234079E+01 -1.911882473513E+01 2.697206551248E+00 -1.465060330160E+01 1.201515926728E+01 -1.447561771989E+01 5.411848867098E+01 -5.752100526710E+01 6.987908805958E+01 1.303513705044E+02 3.507119623897E+02
 2.553831435914E+02 8.050731063516E+01 -1.259309222452E+02 -1.294517089120E+01 -2.258141310061E+01 2.807881345729E+01 -6.506032596769E+00 -2.930976619286E+01 4.550703579958E+01 6.749660670283E+01 -7.689353435731E+00 2.332629826057E+00 -2.098491055933E+01 3.193801060094E+01 -7.224932881746E+00 -6.409625494333E+01 -3.855168105495E+01 8.793100295046E+00 1.415095577768E+01 -2.524036352248E+01 -4.195677638851E+00 9.180523820198E+00 1.533064130311E+01 -3.351423686818E+01 -2.880889164469E+01 4.812443355474E+00 -3.425445760893E+01 -2.204439321012E+01 1.027174454224E+01 1.798277687743E+01 -3.042137586363E+01 1.071657059945E+01 -7.350013352123E+00 1.536169491656E+00 -8.316445924891E+00 -1.366574829762E+00 1.686143995393E+00 4.521360766426E-01 9.062785023730E+00 1.097988218910E+01 3.703338677245E+01 -2.740389809016E+01 -3.346155986522E+01 1.285773948722E+01 -1.978874101882E+01 -2.301617370306E+02 -1.332090907275E+02 2.058171758583E+02
 8.171636250490E+01 1.018078697274E+01 -8.164730842849E+01 4.831918232231E+00 1.930367619556E+01 2.007374685599E+01 9.479136335957E+00 -4.459884382359E+01 3.835263838442E+01 9.555540734449E+00 -5.413598030271E+01 -9.681443792201E-01 2.125095176160E+01 3.188365061883E+01 -5.201767296389E+00 -8.325493557796E+01 -9.450787834622E+01 8.517287405812E+00 -9.792332707643E+01 -3.709838556475E+02 1.864757551315E+01 -6.568115291231E+01 8.049039474077E+01 -3.225253425264E+01 5.576217216387E+01 1.170737065228E+01 2.074287547205E+01 -3.013644946269E+01 3.102602529620E+01 2.597946545579E+01 2.440147173325E+01 6.184216753452E+01 2.128982782336E+01 5.862399385999E+00 -6.175002111867E+00 1.458696498668E+00 5.113286426823E+00 -2.143615923768E+00 1.116871452863E+01 6.884224401550E+00 2.066573898863E+00 1.066936585853E+01 -5.407329462064E+01 -6.185660815978E+00 -2.696310632697E+01 -1.028871253071E+02 -9.759600591280E+00 6.325738245873E+01 3.030795167861E+02
 4.216461445217E+01 -2.225782739871E+01 -5.354332291601E+01 9.152253896078E+00 3.472739572944E+01 4.075690448092E+01 -2.251498247324E+01 -3.087385060547E+01 2.493153258908E+01 4.998318960650E+01 -7.402832328407E+00 -4.719068995697E+00 -1.019054889571E+01 -9.114986655493E+00 -1.263545409850E+01 -5.283439630910E+01 -1.310499565318E+02 2.092688827581E+01 -1.515182955079E+02 -5.318059153811E+02 2.483449829329E+01 -9.094843175313E+01 1.040624690806E+02 -4.590445472606E+01 4.462511788021E+01 1.959562310405E+01 1.270245005934E+01 -2.570740235023E+01 1.364392351695E+01 9.892396163499E+00 4.704288532677E+01 5.122500918223E+01 3.175506679720E+01 1.697138536558E+01 -9.626243566172E+00 1.024218722770E+01 1.956591564860E+00 1.339672619301E+00 3.103796661456E+00 1.264306786586E+01 -5.538384829329E+00 7.710100984763E+00 -5.067101694814E+01 -3.217324803934E+01 -2.284327766790E+01 -5.970159514843E+01 -3.423574250183E+00 4.243415795606E+01 3.352282531876E+02 4.912653014046E+02
 -2.373646313878E+01 -1.782415080692E+01 2.513228382004E+01 7.243766302836E-01 2.744026658112E+00 -2.685014232365E+00 -4.384870566412E+00 3.497516126931E-01 -4.887797036737E+00 6.093535065193E+00 2.599866688807E+01 -1.201794977656E+01 -1.414808149274E+01 -1.968720444072E+01 -2.411306218133E+00 3.467755633694E+01 -1.399683684607E+01 3.396395545435E+00 -2.045499747460E+01 -5.227450178737E+01 -3.961421756521E-01 -1.050809121121E+01 -2.595690327538E+00 9.500528041727E+00 -2.642987486329E+01 8.880714687710E+00 -2.457120000527E+01 9.132827792799E+00 -1.998986693837E+01 -1.866191619619E+01 7.671477505919E+00 -3.086702154167E+00 -6.537718032505E-01 -1.454347090441E+00 8.638769264326E+00 -1.378440304353E+01 1.407731084871E+00 2.111727314362E+00 -5.127933834132E+00 -2.253367572993E+00 3.502421282996E+00 -2.517296949802E+00 -3.895002278649E-01 -8.777627931478E+00 5.516118025236E+00 2.956645072332E+01 9.749730400309E+00 -1.946481967539E+01 4.099260288521E+00 2.181100153097E+01 5.100325047970E+01
 -2.496897701698E+01 1.440342753654E+01 -9.253338571026E+00 1.125562515527E+01 2.449591956072E+01 1.558402872041E+01 -2.417547943950E+01 6.068851264472E+01 -8.486790376505E+01 -7.692184228401E+01 -6.115861637737E+01 7.478180544866E+00 2.479868957182E+01 1.016926090109E+02 -1.056287907011E+01 -5.701113768019E+01 4.877338433511E+01 -3.091454552100E+01 5.737997601552E+01 -2.599506367823E+00 3.243736874741E+01 -5.266160926698E+01 4.464281184829E+01 -1.396274737315E+01 2.973229418482E+01 8.298502923034E+00 7.024995415086E+00 -8.578255157187E+01 1.332831232347E+02 1.279194093529E+02 -1.407395616351E+01 -6.431235999520E+01 -3.297029888254E+01 -2.597612701219E+01 -1.578939908245E+01 1.809536091067E+01 5.144792893225E+00 1.000698317793E+01 -4.657853926140E+00 6.985260373746E+00 -1.616384489602E+01 2.704178726859E+01 6.521147699339E+01 -6.501278812415E+01 7.123742335976E+01 2.080411098703E+01 -3.151905668462E+01 -4.998103977176E+00 -9.047365946944E+00 -1.525465420329E+01 -2.335635367998E+01 1.707396376827E+02
 -4.822651039906E+01 -3.168397589013E+01 2.790159205081E+01 -1.039745072393E+01 -3.973011424308E+01 -3.447107153610E+01 3.633535375611E+01 -3.485106631065E+01 4.052939269974E+01 4.326239823197E+01 6.548652008559E+01 5.819465579647E+00 -2.556160027360E+01 -1.225780007317E+02 4.484210348517E+00 1.557011842845E+02 -2.450871712193E+02 1.271151672700E+02 -1.314705299740E+02 -2.054670734191E+00 -6.351276019756E+01 7.262822355004E+01 -1.055254147451E+02 6.102076768149E+01 -4.802527028791E+01 -2.860839679662E+00 -1.172436708965E+02 3.831902895397E+01 -2.464430707878E+02 -6.667682325747E+01 -3.518324402775E+01 4.096520099015E+01 6.732646071737E+01 1.052424574832E+01 1.378309120949E+01 -5.437852669977E+00 -4.071862771182E+00 -6.565797295284E+00 -2.654839637526E+00 5.042929811749E+00 -1.211263119891E+00 -1.440402703176E+01 -2.202567495029E+01 1.136155573533E+02 -2.131473204834E+01 3.467848885139E+01 6.065574547155E+01 -3.823263803341E+01 -8.466622664861E+00 4.589717493712E+01 5.316325169760E+01 -1.721525389994E+02 4.756688451649E+02
 -3.100091609303E+01 -3.057637260829E+01 9.548233970334E+00 -1.513002031406E+01 -1.919617726004E+01 -2.107895752393E+01 -4.138646698985E+01 -5.595746235598E+01 1.003893894437E+02 1.286750367535E+02 2.749667494142E+01 -3.005442399332E+01 1.865646917620E+00 -5.405995638828E+00 2.401439575441E-01 6.937203808526E+00 1.589558193107E+02 -5.532271740426E+01 5.568025608863E+01 3.254762917871E+01 8.664563885978E+00 1.113186385865E+01 3.909384915438E+01 -4.395645368139E+01 -2.720154108234E+01 3.583685292201E+01 -5.467667106589E+01 7.433561517330E+01 -1.032488493908E+02 -9.679066987884E+01 9.570769306799E+00 6.793724918218E+01 -9.970784700482E+01 -6.298506262600E-01 3.378972160715E+00 -1.202834122769E+00 -1.129187452021E+01 5.460669711790E+00 -2.412374650412E+00 1.303806262669E+00 -1.657501943952E+01 3.346895794025E+00 -7.662734264202E+01 3.219130675257E+01 -6.993832337682E+01 4.622946320584E+01 -4.984649543039E+00 -2.004508951336E+01 -6.089828787771E+01 -8.014060236319E+01 1.420256499209E+00 -4.608544075749E+01 -2.837174572109E+01 2.412484446796E+02