#BIOSYM hessian 1
@Type: Hessian Update
@Units
 distance: 	A
 energy: 	Kcal/Mol
#header
@natom 19

#label
L1      L2      L3      L4      L5      L6      L7      L8      L9      L10     L11     L12     L13     L14     L15     L16     L17     L18     L19

#element
Li Li Li Li Li Li Li Li Li Li Li Li Li Li Li Li Li Li Li

#matrix
57
 1.116272418483E+01
 2.324475348283E+00 2.022005777255E+01
 4.446829052305E+00 2.312155202521E+00 1.220488717255E+01
 -8.795578085418E-01 2.797203133531E+00 1.013947682002E+00 1.979828341134E+01
 5.853662612624E+00 -7.381316575033E+00 -2.133715614170E+00 -6.394687842812E+00 2.877175959695E+01
 1.123298353115E+00 5.452570768476E-02 2.106852777882E+00 2.300536358899E-02 -1.742401996252E+00 3.413631423195E+01
 4.209844571585E-01 -8.542912369806E-01 -7.892284541867E-01 -1.137431747467E+00 2.464897500824E+00 -1.484170457013E+00 1.423119611301E+01
 -2.067365184377E+00 3.040032089705E-01 -5.130322266332E-01 3.951779601912E+00 -4.453482461132E+00 5.503176860637E+00 -6.540169581452E+00 1.055788223965E+01
 9.618914740340E-01 6.669894375112E-01 3.686012623216E-01 -3.408080708225E+00 3.432056947753E+00 -7.021991393258E+00 6.913399742807E+00 -1.103257126601E+00 1.585398819880E+01
 6.961452311972E-02 -2.871189343609E-01 6.208499580985E-01 7.768290829707E-01 5.530419972340E-01 -2.492148520425E-01 8.857617591306E-02 1.793606268708E-01 -4.196910835954E-01 1.425744340574E+01
 -7.388358425154E-01 1.167205516299E+00 3.959620126014E-01 -4.904095336120E-01 -1.124631193506E+00 2.645320395800E-01 -7.421018712817E-01 1.288982388626E-01 1.287073258368E-01 1.458332386402E+00 6.481132686388E+00
 4.493747433736E-01 4.930303930394E-01 4.414340488618E-01 -1.791436897357E+00 3.364632474795E-01 3.547298341884E+00 2.125855545578E+00 -9.545102193535E-03 6.980672499614E-01 -1.274302038319E+00 -3.737560077783E+00 1.229262411104E+01
 9.473039129818E-01 2.167064260598E+00 4.534548968717E-01 -1.978328404116E+00 2.159153133500E+00 -3.097314863527E+00 -2.194481110685E-01 -3.176192538798E-01 1.080379032271E-01 -8.711487480231E-01 -1.086097881231E-01 -2.679797934934E-01 2.274080444190E+01
 -1.423964968385E+00 -4.733247908232E+00 -5.325234055238E+00 2.421420957880E+00 -2.315864598632E+00 4.095802087438E+00 3.503430018547E-01 2.759265167342E-01 4.775562047380E-02 -5.002967630709E-01 -1.570807993781E+00 -2.431173739290E+00 -3.723258176728E+00 1.203889330301E+01
 -1.433505126244E+00 -5.901787138870E+00 -7.012231045533E+00 -3.553177684180E+00 4.508750966807E+00 -2.664889215985E+00 8.059106033628E-01 2.237872636779E-01 -1.806692242880E+00 -5.033132099776E-01 4.841900930009E-01 3.648266624967E-01 -1.413195748497E+00 2.329634842206E+00 2.379657583911E+01
 -3.026364889467E-01 -1.092572835930E+00 -1.132285539518E+00 -1.021346039025E+00 1.396645362705E+00 -4.911288071954E-01 -1.794111275350E+00 -6.480879277519E-01 -2.056547287804E+00 -1.173098859294E+00 9.450376711530E-01 2.279247784039E-01 3.726058243960E-01 -5.072857471179E-01 1.056977403500E-01 2.237177622299E+01
 5.758355993649E-01 5.741469449691E-01 8.474609246957E-01 5.179854967431E-01 -7.262810401330E+00 -1.912545109005E+00 -8.734903654288E-01 -1.804099057791E+00 -3.039828369472E+00 -2.503276877542E-01 1.012014327674E-01 8.246423510588E-01 -1.189143642465E+00 1.312255051815E+00 -3.340289011145E-01 -3.485693836265E-01 1.818278089919E+01
 1.007303546307E+00 -4.305419875317E-01 6.850438257185E-01 8.408969363966E-01 -2.379673312539E+00 -1.285831559311E+00 -1.522563404162E+00 -1.108360252174E+00 -6.521929880550E+00 6.195823567909E-01 -6.723183160659E-01 -3.711593309744E-01 7.513266090651E-01 -8.004940483411E-01 -1.656725902626E+00 1.168531327759E+00 6.867729947864E-01 2.038200069810E+01
 8.510692314061E-01 1.793967844650E+00 8.703673560725E-01 -2.902926098117E+00 -4.823029547323E+00 2.723102796372E+00 -8.458532095301E+00 -1.085067028742E-01 -2.260974683542E+00 -2.740055436858E+00 3.022959845233E+00 -6.598839571085E-01 2.375898221023E+00 -7.488736100333E-02 -1.677999302354E+00 -4.970093438095E+00 2.052123145357E+00 4.294045119091E+00 2.992279225887E+01
 2.987705648104E-01 3.721386413370E-01 -2.545487496393E-01 -3.499524767381E+00 -3.618246999039E+00 8.318702602314E-02 1.759298312772E+00 -1.279471023413E+00 -2.208916939119E-01 2.335926419131E+00 -4.086008936299E-01 6.770322635776E-01 4.309564282239E-01 1.659581740022E-01 3.487927408751E-02 1.678585680296E+00 -1.842328240876E-01 -5.234615008076E-02 -8.215901493572E-01 2.595400243979E+01
 4.514269780058E-01 -6.269929157808E-01 9.968613772176E-01 2.643032344919E+00 2.076382977815E+00 -8.179682792558E-01 -6.866352944681E+00 -3.122599349350E-01 -1.935211460913E+00 3.552868845264E+00 -1.110931008909E+00 1.220343492685E+00 -2.340490163836E+00 -8.677511964658E-01 5.673701206214E-01 3.504463179532E+00 1.276975367227E+00 -1.761327878144E+00 6.016106055675E+00 6.956478128920E+00 2.655110828457E+01
 -3.245281624781E-02 -1.871645754155E+00 -1.688187109162E+00 2.708793704781E-01 3.574520006651E-01 6.704636476071E-01 -1.206624870157E+00 -6.363292172829E-01 2.035651189400E-01 -2.362091395828E+00 2.639657320234E+00 5.829866432544E-01 -2.352035059869E-01 1.180600952838E+00 1.786519841108E+00 -5.387980140602E-01 -1.014146024860E+00 5.664504254514E-01 2.519677336974E+00 1.713131289541E+00 2.943471921003E-02 1.773479475706E+01
 -7.592955951492E-01 9.738961263230E-01 4.484680976674E-01 -8.054080972002E-01 -1.275020710044E+00 1.483494085453E+00 6.898618691405E-01 2.589867965903E-01 -4.332903841488E-01 1.772314156634E+00 -3.062698846754E+00 -1.105261126407E+00 -1.358528590145E-01 -1.899446704494E+00 9.696700758134E-02 -9.889418983010E-01 -7.394082656985E-02 -5.011328996002E-01 -7.050062424938E-01 1.162229923528E-01 1.213577252534E-01 -4.350537271425E+00 1.523012624788E+01
 5.235883559102E-01 8.934094678372E-01 1.736934464887E+00 -1.074726856574E+00 8.198087959006E-01 9.350881291229E-01 7.390471808442E-01 -3.418131385317E-01 -9.768054610732E-03 -1.570527967722E+00 2.313455799583E+00 -5.093112163637E+00 -8.361449203039E-01 -1.071559967040E+00 -1.045833097061E+00 3.948083359498E-01 -1.508506908179E-01 -4.378268462195E-01 -2.378958400270E+00 -1.160667544138E+00 1.117467408252E-01 -2.982228217111E+00 -2.360753723921E+00 1.158192994586E+01
 -7.280728459788E-01 -1.064485166506E-01 -8.015815014990E-01 1.326180722953E-02 -9.868184855409E-01 4.969362177266E-01 1.329468990944E-01 -4.748354625213E-01 1.592015812631E-01 3.266371602365E-01 -1.546327898853E+00 8.122390721319E-01 -3.088974039361E+00 2.595612429792E+00 2.031602464846E+00 2.138537185825E-02 -3.533185551387E-01 1.218998668475E+00 -3.025540485965E-01 3.140969484077E-01 5.968665830546E-01 4.193629829253E-02 -1.734970629189E+00 -1.208903782333E-01 1.871006198322E+01
 1.261973330610E-01 1.880261689325E+00 2.107973981644E+00 -1.067061525522E-01 -6.881154200006E-01 -2.559224339859E+00 -1.574785429283E-01 7.134525958982E-01 -9.098694716686E-03 -2.908165335910E-01 -1.003085332901E+00 1.987825157039E-01 5.435249479129E+00 -3.346741849042E+00 -2.235035368532E+00 -7.031743159957E-01 -7.025355318718E+00 2.864756731796E+00 6.653316040160E-01 4.703509584552E-01 -1.997177751977E-01 9.447598578433E-01 -3.970205689159E-01 -7.339346894669E-01 2.709770361470E-01 1.661284975468E+01
 -3.814312481995E-02 -1.290146925247E+00 6.737064733215E-01 1.038879003441E+00 3.925146164818E+00 -6.709221449993E+00 -8.963236018465E-01 -1.532847022732E+00 8.511068121270E-01 4.722311357565E-01 3.006647416898E-01 -2.044310624495E+00 5.811385771806E-01 -2.229645732978E-01 -6.800745794011E-01 1.946702486380E+00 6.348243203510E-02 -1.785426443700E+00 9.288134698619E-01 -1.751633804829E+00 -1.647455842365E+00 -1.309759680512E+00 4.356287215939E-01 -3.396663335041E+00 2.324402178776E-01 2.348997529374E-01 1.258946055005E+01
 -5.212405218419E-01 -2.880743732606E-02 1.101237511451E+00 5.392761442859E-01 -8.465756392656E-01 -4.844703888776E-01 2.579631634724E-01 2.184114848419E-01 -7.748879525908E-01 -6.032486077549E-01 -1.007722389117E+00 7.710505986465E-01 1.014721595271E-01 -1.895048670805E+00 -1.530255242343E+00 -8.501221364033E+00 -3.558883096022E+00 3.734950770485E-01 3.027160203612E-01 -2.307731716775E+00 -2.935889524947E+00 -5.145697923399E-01 1.145759605835E+00 -6.682106025759E-02 -3.717663374771E-01 2.679596138670E-01 7.461685572647E-01 1.767899103414E+01
 -2.087471816069E+00 -1.626195579676E+00 -5.616699330585E-01 -1.264977314689E-01 1.786665675633E+00 5.743794072688E-01 1.726991195124E+00 7.398420303490E-02 1.805396835303E+00 -4.605626558316E-01 -1.095159428184E-01 -2.068292995668E+00 1.391629718543E+00 -1.995563009541E-01 2.091853308432E+00 -6.491554176965E-01 -3.491472820072E+00 -3.052009439439E+00 -4.812276195400E+00 -7.735722627749E-01 -2.541977378146E+00 -1.289160763775E+00 -8.471614704722E-01 1.767793697579E+00 -2.102191624917E+00 -5.208748478805E-01 7.305856751777E-01 9.447282047683E-01 2.051760861186E+01
 2.015027448584E-01 8.849732178351E-02 -1.243750757065E+00 4.740159042511E-01 -6.921326960149E-01 4.441569215867E-01 8.851864339385E-01 1.979821770945E-01 -1.812222838464E-01 -4.954602634604E-01 9.716518034391E-01 6.242621213110E-01 1.940501227523E-01 1.393922225471E+00 1.555395683099E+00 9.581049264761E-02 -1.202796146170E+00 3.336225062917E-01 -3.139047854542E+00 -3.617337736698E+00 -6.026409252882E+00 -1.839357570546E+00 4.376213885202E-01 5.221223124530E-01 5.902034546946E-01 3.036580209463E-01 1.042211231342E+00 8.537637811085E-01 -3.580695751066E+00 1.797638378401E+01
 -4.103600626803E-01 2.394565259339E+00 1.056101290514E+00 -2.283643300557E-01 -1.480393024892E+00 -2.045000326559E-01 -2.245076354108E-01 -3.851337191479E-02 3.317368185793E-01 1.049687776255E+00 -1.390198099468E+00 -1.489153346069E+00 -4.912979435475E-01 1.959876802182E+00 3.908400833285E+00 1.741854860703E+00 2.469592335513E-02 -1.251011999210E-01 -6.644786298736E+00 -1.211390653541E+00 -3.046993932828E+00 -4.032988076756E-01 5.355566713291E+00 1.395825471943E-01 -5.793545475028E-01 -1.111350799348E+00 7.352943440392E-01 -2.091743043113E+00 4.957283962986E+00 2.977390613727E+00 1.457701844533E+01
 2.114825154438E+00 5.628248995173E-02 6.875301826666E-01 1.978366144175E+00 -2.387439912284E+00 -1.389195137518E+00 -3.246180235482E+00 1.084748310415E+00 -1.519354764742E+00 -2.383252157537E+00 6.873895348085E-01 3.255392779603E+00 -3.042099129256E+00 1.966491462852E+00 -1.107652946454E+00 1.124562951081E+00 1.426840651183E+00 5.080585075507E-01 4.739764968737E+00 -3.814528025607E+00 -1.233882993681E+00 2.690842555614E+00 -7.673402379051E+00 -1.175141515108E+00 2.579739798661E+00 -1.759513074817E+00 -5.710598984993E-01 4.827306922045E+00 8.275518945760E-02 -8.348699137022E-01 -2.593780316439E+00 2.219234120828E+01
 1.007567580184E+00 -7.907747991548E-01 -8.717929879067E-01 8.537007461985E-01 -4.618759316487E-01 -3.019268531661E+00 -2.499673874259E+00 7.241578504354E-01 2.949795694800E-01 -4.207769114157E+00 4.743667585445E-01 -3.235298529690E+00 6.009295450352E-01 -1.443389826318E+00 -1.866748855583E+00 -4.418205611553E-01 4.684524542627E-01 -7.147142659266E-01 1.604306433981E+00 -4.983980622797E+00 -7.416317281830E+00 -9.170601642212E-01 9.674736435063E-01 7.682408030162E-01 1.410309003803E-01 5.318005753406E-01 2.354793352608E-01 -5.664525715912E-01 5.815606204299E+00 2.937148869286E-01 2.181687661874E+00 -2.098048097248E+00 2.308195464381E+01
 -5.367893016154E+00 -9.704930441932E-01 -3.397341694150E+00 -7.823294643245E-01 2.067285617656E+00 -5.952090155388E-02 4.598148106598E-01 3.028432648481E-01 -2.730129279808E-01 3.317172912657E-02 -2.991386091530E-01 2.895915525226E-01 -4.556015083881E+00 2.638845404534E+00 1.146877297881E+00 -2.175498750545E-01 5.402239394479E-01 -1.174890220036E+00 -1.848101280081E+00 6.698668799882E-01 1.157496279400E+00 -2.617030664428E+00 -3.338957856533E+00 1.167194441519E+00 -5.747081602244E-01 1.887780579818E+00 1.580636611595E+00 -4.392754341439E-01 -1.415838498077E+00 -1.779041014434E+00 1.123673850792E+00 1.601230961674E+00 1.428305135133E-02 1.645464885014E+01
 8.888779511544E-01 7.140436525675E-01 5.405946823428E-01 -3.077122193798E-01 4.815014059660E-01 2.373721912544E+00 -5.730475984280E-01 5.482714699827E-01 -6.580913854016E-01 1.288818830362E-01 6.379661463367E-01 -1.159086504368E-01 1.498002203022E+00 -9.758370160628E-01 -2.082563166864E-03 8.983825360670E-02 -2.035206191207E+00 6.937857481260E-01 1.658124877828E+00 -2.269384670489E+00 -1.011440383377E+00 -1.656099518819E+00 -3.347747972345E+00 -5.410495337461E-01 2.243988850694E+00 -1.357516588364E+00 -3.214096821725E+00 1.171530254807E+00 -2.384783344549E-01 -6.785705728034E-01 -1.303542885872E+00 -6.250871336656E-01 1.170150775070E+00 -1.589863644795E+00 1.955971589307E+01
 -3.093927474452E+00 1.301994577714E+00 -1.580706212617E+00 -3.946676520009E-01 4.850815378247E-01 -5.802670944868E-01 6.310560077408E-01 5.437130837724E-01 7.888187514863E-01 -2.711683984251E-01 3.386554684503E-01 9.015391501804E-02 2.222783868420E+00 -1.691133948860E+00 -2.360374243573E+00 -1.315233484433E+00 3.848730907249E-01 -3.399739892209E-01 -9.807007994268E-01 -2.944458604638E-01 -1.979273580132E+00 1.484227667715E+00 3.078358892117E+00 -1.595024155634E+00 7.105449153828E-01 -9.471813485189E-02 -1.124088333603E+00 1.176179134875E+00 4.049803431573E-01 -6.925633616888E-02 3.996282300622E-01 -3.006009828504E-01 -2.204546042484E-01 8.856370591305E-01 1.679170844532E+00 9.901899678184E+00
 -1.851841159907E-01 7.089780332472E-01 -1.753277742874E-01 1.653837797933E+00 -1.012461786809E+00 -8.577551597191E-01 2.605692932958E-01 -8.063205199053E-02 -1.110983048762E+00 -1.353187532381E-01 1.076883700205E-01 2.511659882538E-01 -1.597104091238E-01 2.339295497254E-01 -3.898883335710E+00 -7.786034894920E-01 1.532564425539E+00 -1.533954451245E-01 -4.463144296625E-01 7.873939699862E-02 -2.008331571079E-01 -5.370200917566E-01 9.387626359955E-01 1.208967910188E+00 -7.555069005609E+00 7.086196994394E-01 -3.582919316126E+00 4.600708618874E-01 7.518648234743E-02 1.431818282717E-01 -9.740976733143E-01 6.132467304859E-01 2.166889560068E+00 -7.110911403874E-01 1.749198876137E-01 2.679602988067E-01 1.971375215890E+01
 1.174451314365E+00 4.855016804579E-01 -5.265132384855E-01 2.002705407798E+00 2.860944474203E-01 -1.570602344313E+00 4.216506024775E-01 1.060209424164E-01 1.031406411639E-01 3.089236918935E-01 -4.483916771335E-01 5.947898765266E-01 -1.204959413369E+00 -7.306257222725E-01 -2.974637188345E+00 9.788796853473E-01 -1.328538386969E-01 1.900037332114E+00 -1.595048566650E+00 -6.631972882746E-01 1.035861037714E+00 1.479146998919E+00 8.873575804660E-01 -1.160931060327E+00 -4.991691929378E-01 -1.277376990126E+00 5.996122634281E-01 1.055972432743E+00 -1.721122369720E+00 9.228142125985E-01 -1.380684916293E+00 3.032053854698E-01 4.129121650358E-01 2.929872657020E-02 -6.172152562810E-01 1.293430693135E+00 2.652651983337E-01 1.728498868451E+01
 -1.904814495343E+00 1.233055252369E+00 -6.433941841090E-01 6.265266093513E-01 -2.064842378863E+00 -3.266779418517E+00 3.995237647631E-02 6.247235145704E-01 3.760182680306E-01 -1.443072219944E+00 6.257210007272E-01 -5.589353247764E-01 -3.145907998655E+00 -1.274994646170E+00 -5.898986911236E+00 8.135870063323E-01 7.245195891786E-01 1.965716237179E-01 -1.257184686065E+00 -1.040622473921E+00 -1.227431591806E+00 -4.257120131536E-01 -9.893728848280E-01 1.607419460498E+00 -3.714854179338E+00 -6.486048248375E-01 -2.091223253998E+00 -6.521084222736E-01 -1.154438433375E+00 -1.012002088257E+00 -2.140269113965E+00 1.750899624411E+00 1.201494571708E+00 7.811397862565E-01 -3.566262566130E-01 3.836405467712E-01 3.416900871397E-01 -2.236606570287E+00 2.745930232628E+01
 6.333773929562E-02 -1.855947192114E+00 -1.596822499015E+00 1.774241712325E-01 -4.772613375724E-02 -5.067858455192E-02 1.869931272101E-02 -6.592381552049E-01 -7.391759154699E-01 -5.752476643560E-01 -8.728645964225E-02 -9.699565359031E-01 -5.135962435315E-01 8.168498664901E-01 1.140521893375E+00 -2.104587091407E+00 -4.252894787266E-01 -6.171471259262E-01 -1.384953479655E+00 6.711519637843E-01 -8.523791527957E-01 9.338556692471E-01 1.572707404933E+00 1.002566768240E+00 -2.567824384130E+00 -1.785010763105E+00 -3.259069414179E+00 -7.084880781354E-01 -2.638320925492E-01 2.941712954638E+00 7.613861309575E-01 -1.321900977519E+00 8.799491552500E-01 -3.977737838932E-01 -4.132744225110E-01 4.782519699076E-01 -9.280859489320E-01 1.217584200749E+00 -4.465819620669E-01 1.937346210258E+01
 6.593295091277E-01 7.067588913009E-01 1.320226703213E-01 -1.659524971131E+00 -1.580598038656E-01 -2.240788768292E-01 2.320935236170E-02 -4.411838991591E-01 7.507199246106E-01 -7.163749050979E-01 1.054017229927E-01 1.249525891736E+00 7.291050915888E-01 -2.385516846397E-01 1.269736514924E-01 1.428932036810E+00 -9.903565258144E-01 -3.734654616469E-01 2.071284600284E+00 2.270882701586E+00 1.021882734235E+00 -1.081943155979E+00 -4.972316969087E-01 4.712501590294E-01 -9.500087544900E-01 -5.018954410641E+00 -2.872193249358E-01 -2.770704333699E+00 -1.630193159961E+00 1.294637210643E+00 -8.075267423292E-01 -5.385043248449E-02 1.211178402607E+00 -1.008969465180E+00 -1.005538630502E-01 -1.322104349668E+00 2.209421912209E+00 -6.984636781149E+00 -6.691988450791E-01 -5.728712938590E+00 2.402472219703E+01
 -5.104014741048E-01 7.176773963092E-01 -1.510726896255E+00 -7.583838839257E-01 6.440649821770E-01 4.101836285934E-01 2.631136449446E-01 8.793589061541E-02 -6.953870782102E-01 -6.750065739446E-01 -3.376301223788E-01 -9.590409964578E-01 -8.978062516996E-02 8.423354253509E-02 1.382950818911E+00 -2.493378795278E+00 -8.590064455494E-01 -5.330385553679E+00 -1.974698938977E+00 5.486002836779E-01 -2.766631225675E-02 4.610406644876E-03 9.931615219025E-01 -5.228713044602E-01 -1.493495414636E+00 -9.637054123560E-01 -2.035977651511E+00 3.526007033782E+00 -5.192812116547E-01 -5.352996698723E+00 -3.135438687711E-01 -6.170886185621E-01 8.065856768741E-01 1.229379020765E+00 -1.476585574364E+00 1.019876051067E+00 -4.406080755830E-01 1.868359472213E+00 -1.315829353655E+00 -1.187572841373E+00 3.771851840833E+00 2.515383007515E+01
 -2.099354340681E+00 7.285815128270E-01 3.906203886169E-01 -3.190645870258E-01 -1.680723781686E-01 -1.747561514103E+00 -2.760821087803E-01 6.846422610478E-01 7.908045542349E-01 -4.403350310648E-01 1.025118258308E+00 8.315294393230E-01 4.683016456567E-01 -3.918899281734E+00 -8.719625659575E-01 1.569724166983E-01 1.796860999465E-01 -3.559545187592E+00 3.538104386776E-01 4.329839155144E-01 -8.968896253627E-01 -1.108246770439E+00 -1.311110942437E+00 1.112648642226E+00 -8.236745213672E-01 -7.077884229812E-01 2.839390192477E+00 -3.796295724326E+00 3.347088046216E+00 -4.440598823491E+00 2.004424988791E-01 1.051186791202E+00 9.885846370384E-01 3.220176740842E-01 1.328650754641E+00 7.237151602699E-01 -5.138825848274E+00 -3.622801844991E+00 2.746112637114E+00 -9.353210881643E+00 2.045513116400E+00 -3.190342785710E-01 2.439173245868E+01
 -8.675281035205E-01 6.588870462649E-01 -1.112624730459E+00 -6.040531641383E-01 -7.879224875589E-01 -3.331236022913E-01 -1.320225932052E+00 -2.408548194689E-01 -1.057689201525E+00 1.782796000584E-01 2.528079558683E-01 8.071673444089E-01 1.484335021922E+00 8.249912263139E-01 4.037988840398E-01 1.746353438245E+00 -8.476977184229E-01 8.685361150551E-01 1.357630506678E+00 5.997773907429E-01 1.135938715922E+00 -1.027802937812E+00 5.822917176861E-01 6.409156429212E-01 -1.316759825723E+00 5.452019396720E-01 -1.222982728987E-01 1.513146002249E+00 -3.380780854304E+00 1.922219375663E+00 -1.891665109210E-01 -2.263073207684E-01 -1.707398718776E+00 -1.112727582770E+00 -4.574840007236E-01 6.425030825998E-01 -3.385385511209E+00 -5.601033268230E+00 7.327527736799E-01 2.671871891915E+00 -1.580384922103E+00 8.149005573447E-02 1.287518393553E+00 1.782328248219E+01
 -7.749509535373E-01 -5.472554952376E-01 -1.654905602862E+00 5.191286026810E-01 3.749072150601E-01 -1.592558560038E-01 4.826576537625E-01 -4.897280573495E-01 -5.336835535904E-01 1.644455343159E-01 -8.817396716329E-01 -8.705777384900E-01 7.944415102697E-01 2.040550232307E+00 2.279250749651E+00 1.300189173743E+00 -8.914523615300E-01 -7.247896487380E-02 -1.035739166836E+00 2.399584926565E+00 2.162374571329E+00 -1.538792739264E+00 1.459915409416E-01 1.942702086694E+00 -1.777230472791E-01 1.272093937394E-02 1.308655432008E+00 -9.520572811154E-01 -1.785787075974E+00 -6.249158329066E+00 -2.275305111406E+00 6.207521115450E-01 -6.772782722485E+00 7.988014255322E-01 -9.300447547619E-01 6.914316948221E-01 5.368294234257E-01 9.194540678594E-01 -1.506527600992E+00 8.865192313857E-01 -1.229522945174E+00 -2.329533694531E+00 5.089719327092E+00 1.438233080057E+00 1.868019490472E+01
 1.915700331740E-01 2.217235133667E+00 1.266541713960E+00 -2.242927415659E-02 8.842685203612E-01 -2.012333648227E+00 6.756748434780E-01 2.896132124940E-01 2.048098443913E+00 -1.602032351295E+00 -2.585783421007E-01 -1.317083507018E+00 -1.148886476118E+01 -1.598014610751E+00 1.011885238299E+00 -1.151108270518E+00 5.442122505450E-01 -3.938162415062E-02 -1.077727752239E+00 -1.163930980425E+00 -1.263706856345E+00 -2.455229717061E+00 -8.218289936610E-01 6.167941232515E+00 5.987174400134E-01 -7.923008510607E-01 -1.245757255412E+00 3.071615590923E-01 4.213968822591E-01 9.852712546825E-01 -1.615267420438E+00 7.587289781223E-01 -1.235767306571E-01 1.431046267971E+00 -1.194327325286E+00 -1.823903992893E+00 -4.116872336030E+00 1.925866415164E-01 6.803878721065E+00 -7.859233612922E-01 -3.868801064213E-01 -1.782809707820E+00 2.334114262972E+00 2.098842658939E+00 1.681772842969E+00 2.250712161986E+01
 -7.188466561120E-01 4.909775646853E-01 1.247358431798E-01 5.580922230116E-01 -1.250250475702E+00 -2.218796960552E+00 -6.571539258766E-01 2.233266442398E-01 -8.139643905594E-03 -1.632409590249E-01 5.510772974439E-01 5.987516277480E-01 -2.345958343332E+00 -3.153183490504E+00 8.359892615860E-01 -4.417325990317E-02 -1.533399983709E+00 -2.094748502363E+00 4.986511578620E-01 7.182312677859E-01 -4.195112674466E-01 -4.976473274663E-01 -1.798233946197E-01 9.247098769997E-01 5.594638651540E-01 -4.825818736366E-01 2.777680249086E+00 1.931424072862E-01 -2.501803994683E-01 1.194984916189E+00 -1.220097350555E+00 -6.919607765599E+00 3.052325327801E+00 -1.808951443991E+00 -7.732841190078E+00 -5.131972517995E+00 -4.608883466729E-01 -4.302058186910E-01 -1.449166473233E+00 1.114291426027E+00 -2.130150440655E-01 1.176558872050E+00 2.781548092830E-01 -8.349482204045E+00 -3.371764110486E+00 -2.595565772501E+00 2.660801619318E+01
 -1.941152151994E-01 2.381619628704E+00 -5.714498021114E-01 8.244910122657E-01 -1.627934956846E+00 -2.581215406514E+00 5.884095897755E-01 -7.904278271552E-02 1.888129850972E-01 -1.887890619206E+00 7.467810104536E-01 3.160588160926E+00 -2.638909249859E+00 1.078108926611E+00 1.459528275428E+00 -1.907415296238E+00 6.164613835423E-02 1.916906075755E-01 1.752842292447E+00 1.634726192602E+00 -1.234547081251E+00 2.190935261385E+00 -3.986151276750E-01 -6.718003483111E+00 -7.614171904936E-01 9.762971823332E-01 3.926910023395E+00 1.354818282586E+00 -2.602913578228E+00 1.028193160660E-01 1.263680828739E+00 5.717427138959E+00 -5.383127388875E+00 3.961461989160E-01 -2.386357951086E+00 -3.947110747588E+00 5.220024784493E+00 -2.106109420937E+00 -6.182101932676E+00 -2.161864344003E+00 -2.694003471936E-01 3.443569734138E-01 -1.308131929548E+00 -3.841736876508E+00 -3.438800640029E+00 -6.425865882317E+00 4.432685750191E+00 2.452735395093E+01
 -4.560594516247E-01 4.274101114313E-01 1.572413885618E+00 -1.530885104246E+00 -3.019635807600E-02 2.859230610820E+00 -3.946640182349E+00 4.368038941205E+00 3.163053650037E-01 -6.604930647875E+00 -2.222773911765E+00 -9.390065359018E-02 -2.399206793334E+00 6.036496053722E-01 2.766817177163E-01 9.590378912808E-01 -5.751314617483E-01 7.307276440320E-01 1.871074046969E-01 -4.040623376423E+00 -1.489986281068E+00 -1.558525205863E-01 3.343611997329E-01 -5.448728398049E-02 6.000233192052E-01 -6.955419421482E-01 1.131668082189E+00 -8.404869192239E-01 3.253690679952E-01 4.168549535771E-01 4.484734734355E-01 2.047729335463E-01 -1.444701002961E+00 7.933817953667E-01 -4.950409688046E-01 1.740930705552E-01 -1.568489097665E+00 3.501455164365E-01 4.638578883474E-01 5.955545958214E-01 -3.345934714202E-01 1.874465334476E+00 -7.621031639712E-01 4.460997722544E-01 -8.193797860089E-01 1.545572429507E-01 -5.501254352990E-01 -1.169129708985E+00 1.579490778677E+01
 -9.145713044025E-01 -5.109811099198E+00 4.706342365538E+00 4.084731371233E-01 1.845335088069E+00 -7.733177314099E-01 4.167215388566E+00 -4.398197282586E+00 -1.586094217603E+00 -2.156347847989E+00 -1.951869793336E+00 -6.610260038731E-01 2.411183565822E-01 2.349929335034E-01 5.287639770579E-01 -1.680120865022E+00 -2.820046854912E-01 -1.422833154604E+00 -3.610620583906E+00 -8.416824892614E+00 -5.738280281001E+00 7.121202309275E-01 2.392838401740E-01 2.731911122759E-01 -2.412690059575E-03 2.182330717681E-02 1.009498876080E+00 5.721812856423E-01 -1.012649698982E+00 -1.915414578375E+00 6.078359831018E-01 3.153239520738E-01 1.359755699846E+00 -7.660465873935E-03 3.836602685934E-01 -3.179787891784E-01 -4.861616494363E-01 -8.406685514511E-01 4.843712823233E-01 -2.946651083213E-01 -9.495244095042E-01 -1.822927783772E-01 -4.251781976381E-01 -2.863061267675E-01 -8.295422881401E-01 5.810419271763E-02 -8.365919557379E-01 -1.565406807625E+00 1.796822302788E-01 2.026606730002E+01
 1.144473445091E+00 3.829842698826E+00 -4.263980877690E+00 3.075856099958E+00 -3.712679734840E+00 -1.061680670572E+01 1.839373667408E+00 -8.898934627893E-01 2.438270386430E-01 2.546689104247E+00 -7.442186008058E-01 -2.691336062147E+00 3.512281553174E-01 -1.413833907225E-01 3.098712744032E+00 2.924460292372E-01 2.565623549950E+00 9.720386659889E-01 -3.916428134894E+00 -5.248108040931E+00 -4.097303061124E+00 1.627195021605E+00 -1.149336201777E+00 -1.155172866660E+00 -6.808793233488E-01 7.751927687316E-01 1.100664479489E+00 6.860184513749E-01 -1.773637605566E+00 -6.210258760126E-01 -1.190389110618E+00 3.607623480558E+00 2.168593825851E+00 2.315956012616E-01 -7.664662416438E-01 2.118235119204E-02 1.951821698997E-01 3.782369177666E-01 -1.210133918257E+00 1.409936670932E-01 -2.382977081089E-01 3.374614123294E-01 7.685353375313E-01 2.899466742882E-01 -7.602703291487E-01 -1.800230206070E+00 6.576393078579E-01 -7.664065445645E-01 7.491129744219E-01 4.388126620526E+00 2.126833383285E+01
 -4.961188981455E+00 -7.628118945959E+00 -1.909616446827E+00 -7.866209318409E+00 8.078663783493E-01 1.220448545846E+00 6.016516158369E-01 2.007841850534E+00 -5.003337632753E-01 6.222655666632E-02 -4.145840544173E+00 2.549989050685E+00 2.523521644754E+00 -1.066745975265E+00 1.062229773268E+00 8.113104437933E-01 -8.610231671422E-01 -6.673077347623E-01 -8.119554669250E+00 3.770630310750E+00 2.901998827616E-01 -8.637477942525E+00 2.540447758586E+00 -2.091729753157E+00 -8.578100000124E-01 1.247370277001E+00 6.409146825638E-01 -7.097451892614E-01 4.157238601958E+00 7.619729074218E-01 -2.144340052360E+00 -8.367575188142E+00 -2.557630984901E+00 -3.335227382191E+00 1.978645489593E+00 2.212987580145E-01 -1.076251633177E+00 -3.381160088907E+00 1.188933827733E+00 -5.796352277392E-01 1.866004084768E+00 1.454721815890E+00 2.775559410879E+00 -2.908898686993E-01 2.131657990520E+00 1.971957911384E+00 1.890213542553E+00 1.172303383640E+00 -1.093549994946E+00 2.367143294534E+00 -5.303496397019E+00 3.495392473959E+01
 -4.201584622232E+00 -8.359792802625E+00 -1.004024806060E+00 -1.148778403213E+00 1.301030793802E+00 7.060068887859E-01 3.503345782907E+00 -1.719039243372E+00 1.539315620738E+00 -3.606384361565E-01 -3.798976174453E-01 3.415466187245E+00 2.714674514679E-01 -7.792229743177E-01 -1.930963778269E-01 6.764243657381E-01 9.602931465713E-01 1.402826677489E-01 -1.381405936368E+00 -7.033093254933E+00 1.119304893738E+00 3.780497751015E+00 8.318732780540E-01 -1.622084547210E-01 9.373687237617E-01 2.441603887923E+00 8.107506131633E-01 2.344535588783E+00 -1.453401204867E-01 -1.717802605253E-01 -4.406318411867E+00 -3.279529545513E+00 -2.893224349385E+00 7.982439909079E-01 -2.954825557398E+00 1.308855258774E+00 -1.407672552098E+00 -3.590295831929E-01 -5.358769837943E-01 -5.592491691551E-01 5.255887501440E-01 -1.545638815055E+00 -4.499304259088E-01 -2.655069848239E-01 2.288891394294E+00 -1.562349615070E+00 1.696229290028E+00 -4.578141512009E+00 1.395273548587E+00 8.076131715991E-01 -1.418182154947E+00 -1.953041410909E-01 2.044678492166E+01
 -3.580156934203E+00 -4.063685766415E+00 -8.463001704896E-01 1.645767498118E+00 3.160010602873E+00 1.582646887694E+00 -2.157021112824E+00 2.119321071704E-02 -1.597819562172E-01 4.772432820532E+00 2.861649752469E+00 -7.697802499123E+00 5.059251485413E+00 1.799227058238E+00 -8.233523456703E+00 1.522865512115E+00 -2.193808442391E+00 -2.454908212617E+00 -7.875684331502E-01 3.315030027609E+00 -1.260894370957E-01 1.717026306881E-01 2.013241446493E-01 8.570493438575E-01 -1.141769652391E+00 -1.853442938882E+00 -1.073011874075E+00 3.802121302714E-01 -1.691978958468E+00 -5.597112341210E-01 -4.551163161157E+00 -4.731316102736E+00 3.862143590169E+00 -1.265131814229E+00 2.551478934371E+00 -8.920096754480E-02 6.113343893650E-01 -5.984358141940E-01 3.586798131925E+00 4.261663599029E+00 -1.717488624048E+00 2.888397077792E+00 -2.432492640343E+00 2.579335847303E+00 -1.496177589237E+00 -5.985275132556E-01 -1.918157742270E+00 -4.351670624632E+00 -4.326056244772E+00 5.998186090018E-01 -3.891959067181E+00 3.692152229175E+00 -1.340868031675E+00 2.727259831815E+01