#BIOSYM hessian 1
@Type: Hessian Update
@Units
 distance: 	A
 energy: 	Kcal/Mol
#header
@natom 19

#label
L1      L2      L3      L4      L5      L6      L7      L8      L9      L10     L11     L12     L13     L14     L15     L16     L17     L18     L19

#element
Li Li Li Li Li Li Li Li Li Li Li Li Li Li Li Li Li Li Li

#matrix
57
 2.174574997719E+01
 2.668096565130E+00 2.254095211696E+01
 6.581278070694E+00 -1.775284179183E+00 3.235335397233E+01
 7.169342236983E-01 1.262160185877E+00 1.958434863891E+00 8.711336440311E+00
 8.996580955815E-01 1.488453340326E+00 1.486949799567E+00 3.231543009627E+00 9.579623477894E+00
 3.581337523333E-01 1.295850805658E+00 1.522612051530E+00 6.337703304699E+00 4.011080471373E+00 1.860998358370E+01
 -5.493398456878E-01 -5.631236104323E-01 1.807204500779E+00 7.149940438324E-01 2.670678537516E-01 -4.503992031532E-01 1.014928971129E+01
 3.716530087466E-02 2.549415496977E-01 -2.699267869517E-01 8.110090586707E-02 7.468118741617E-01 -7.060649107124E-01 2.625503281045E+00 8.010025347236E+00
 2.296192169673E-01 8.710739432996E-01 -5.504105515423E-01 1.107181400670E+00 -2.974153152716E-01 3.444478876625E-02 6.761580051401E+00 -2.368779246648E+00 1.869394428788E+01
 6.154597817327E-01 1.053952598911E+00 3.338131021288E-01 5.711687926811E-01 -4.137538585588E-02 3.002704337287E-02 1.419439156495E-02 -1.939258053250E-01 -8.128748420186E-01 1.325640050639E+01
 2.210648959531E-01 6.437720252431E-01 1.113073929472E+00 5.237817615016E-01 2.245753966162E-01 2.150773695385E-01 7.647325552849E-01 9.893432290115E-01 -8.739608984505E-01 -5.519023346020E+00 1.489894452477E+01
 1.551171262442E+00 1.277222556490E+00 8.544585815425E-01 -1.760451915615E+00 7.004081322897E-01 -1.186080730258E+00 8.884533526969E-02 1.700378144469E-01 -9.961901936846E-01 2.017271127783E+00 1.749334872382E+00 2.261785082189E+01
 -7.120198147106E+00 3.326121672766E+00 -7.589163533566E+00 5.693064151058E-01 -1.791783590955E-01 1.720681657158E+00 3.124113587989E-02 -3.792440497383E-01 -1.041820184341E+00 -8.037899918884E-01 2.663079777674E+00 -4.401006298979E-01 1.454611096772E+01
 2.223428127928E+00 -1.476715942335E+00 2.078674941715E+00 1.091772435091E-01 3.699097277844E-01 1.177486400389E+00 -1.300172651052E+00 -1.426879274671E+00 -4.573560364192E-01 3.164401782166E+00 -1.108050571195E+01 1.208166715873E+00 1.941126762209E+00 1.766764679657E+01
 -5.722903638373E+00 3.413640113765E+00 -8.354798594487E+00 1.078672184823E+00 2.917827983598E-01 8.531475584655E-01 1.483519355720E+00 4.453354914172E-02 5.238765464025E-01 -2.954828808838E-01 7.974718968427E-01 -1.092197983710E+00 5.272019914931E+00 -4.497295976879E+00 8.469981325170E+00
 -2.121884142210E+00 -1.122901382777E+00 -1.774376973597E+00 -8.578831457365E+00 -5.993458408113E+00 -4.145867522377E+00 3.265904092827E-01 -7.380202427306E-01 -4.883713729755E-01 -4.828833644464E+00 4.234968092603E-01 -3.959007814958E+00 -2.766844561791E-01 -1.267234184122E+00 8.376567266021E-01 3.435971110964E+01
 3.568208562691E-01 -8.557615553956E+00 1.508426409104E-01 -6.017360082736E+00 -3.818978935045E+00 -3.916369118560E+00 -1.157132242790E+00 9.558647408287E-01 -1.797701113311E+00 1.465323957224E+00 -2.146888324647E-01 2.447497001669E-01 -2.465441166320E+00 -1.208605360672E+00 -2.532015041431E+00 -3.695616593296E+00 3.031586441295E+01
 -8.504758030024E-01 2.877058258153E+00 -2.346048080463E+00 -2.737937155758E+00 -1.243144092846E+00 -1.747581316733E+00 1.089424101524E+00 -8.408566084001E-01 1.858852839487E+00 -4.537612772621E+00 2.655683011609E+00 -1.030375065937E+00 -1.716787112648E+00 -5.054361767271E+00 -7.794024291297E-01 -5.463896634595E+00 -2.426555225090E+00 2.490201523257E+01
 1.406070721795E+00 6.200713658112E-01 7.899620287622E-01 -9.120828545302E-01 9.172002893716E-01 5.760509535817E-01 -6.589106965051E+00 5.361205653176E-01 -2.577891953716E+00 -4.527210621707E-01 6.734869300230E-01 1.095508146042E-01 5.516160541629E-01 -1.972405334077E-03 -4.876169140973E-01 -4.142227953536E-01 -9.884511637870E-02 -3.486768595664E-01 2.870844676559E+01
 3.379946730346E-01 -2.427633611889E-01 5.428298915571E-01 2.275895753681E-01 8.239620251475E-01 8.923412140818E-02 2.504597998623E+00 -2.525106626859E+00 2.313982168811E+00 -8.245101138008E-01 5.064746671212E-01 4.341550228235E-01 4.422606211356E-01 1.803971079006E-01 6.500439048044E-01 -5.303300309119E-01 1.888579534520E-01 1.388326543764E+00 -1.573303621462E+00 1.237380141146E+01
 -9.727447503364E-01 -7.568103836846E-01 -5.214277320960E-03 6.179633541168E-01 4.094774330816E-01 2.976083504350E-01 -3.330024892877E-01 1.559058663920E+00 -1.110482275617E+00 -2.426287949990E+00 -2.195542599941E-01 2.634848694494E-01 -3.143297480853E-01 6.717522328218E-01 -8.642087018755E-01 6.521285654719E-01 -9.062231091388E-01 -6.856132151724E-01 -5.239259398061E+00 6.249381543957E+00 2.421370704955E+01
 -3.176582832199E+00 -1.756387838233E+00 -4.625345291067E+00 -1.236005948916E+00 -2.205007396329E-01 2.141800699028E-01 1.259119122221E+00 1.050201929786E+00 -2.705144225999E+00 -4.211762548374E-02 2.860145617240E-01 -1.033665644745E+00 1.318393923777E+00 -6.912650627394E-02 -1.003206147244E+00 1.450524098212E+00 -4.462670518734E-01 8.227197580609E-01 -5.630874477200E-01 1.261589608187E+00 1.583066679068E+00 2.260234229955E+01
 -7.598183991384E-01 -3.759963940679E+00 -2.062347483058E+00 1.268737690913E+00 1.965015710179E+00 7.794807845648E-01 5.271865660537E-01 -1.279796697023E+00 5.711807179657E-02 -1.110921644649E+00 -6.635124317560E-01 -1.416702729808E+00 -1.910069204703E-01 3.336143224415E-01 -7.017883803277E-01 -3.548987632917E-01 1.799665249273E-01 -8.500840241880E-01 5.938428665264E-01 1.258423127166E+00 -5.959271658734E-02 1.046311077306E+01 1.163987287934E+01
 -5.930227930215E+00 -6.313931772999E+00 -1.011682251919E+01 -1.999632860593E+00 -1.037570431588E+00 -2.638190591446E-01 -1.642429071687E+00 -5.055844990141E-01 2.814415712077E+00 -2.549380044312E-01 5.301430747272E-01 -6.574122343667E-01 -6.105571951516E-01 -3.105716262541E-01 -1.147856422145E+00 -1.036017319783E+00 1.028195755266E+00 3.276870882707E+00 -6.045428573025E-01 -9.464433135654E-01 5.667205101978E-01 5.271941245317E+00 1.693202010576E-01 1.752364664843E+01
 -8.370615215226E-01 -2.112508082850E-01 -1.833298294449E+00 -7.703676851491E-01 -9.972653158437E-01 6.416199157457E-02 3.694109197025E-01 1.292269433475E+00 -8.030150451563E-01 1.034583194151E+00 -4.250985888125E-01 -9.863010622509E-02 4.628557423789E-01 9.720959064296E-01 -4.976130997047E-01 1.089064294819E+00 -2.687163489710E-01 -4.104675359855E-01 -1.217513897436E+01 -5.462239816670E+00 3.325795272019E+00 9.714618909308E-01 -3.510532293346E-01 1.733836202048E-02 1.463035859638E+01
 1.361994899126E-01 1.369927801182E-01 -1.738809805019E-01 -1.182515651179E+00 -1.126721090351E+00 -1.194455930031E+00 -8.246544914377E-01 -3.450433814886E+00 2.786356616787E+00 1.583019407499E-02 1.299980737803E-03 6.031902388005E-01 -5.051514538104E-01 -2.352934171197E-01 -2.946651567407E-01 8.151924666435E-03 8.053635740703E-01 1.178470019479E+00 -3.792514187958E+00 -3.311685606647E+00 6.148444735502E-02 -1.853782178708E-01 1.045118451567E+00 -6.413051264848E-01 9.446780703567E+00 1.435657319041E+01
 -5.327099603355E-01 -8.103845283841E-01 9.275020044298E-01 -9.342416239821E-02 -4.553807744909E-01 1.130098039743E+00 -6.429661360278E-01 4.062229952982E+00 -2.954441969145E+00 1.441676221949E+00 6.811832905694E-01 4.078342445985E-01 -7.631499073765E-01 -8.679712340710E-01 7.465773865825E-02 1.287681560592E-02 1.694807241120E+00 -1.471924559130E+00 3.756219581318E+00 1.063271956027E+00 -1.760700211776E+00 -6.880693329501E-01 1.868974919494E-01 8.856698914899E-02 -2.372815680686E+00 -6.138004910040E+00 1.078185323252E+01
 -6.672137643197E+00 -4.201085611854E+00 1.168824752389E+00 -8.827498315548E-01 -3.679021309974E-01 -7.880441533856E-01 8.977340789244E-02 5.195379112166E-01 3.616599660535E-01 -7.192285080736E-01 2.394956239350E-01 2.255415730599E-01 5.046605368997E-01 2.636038568040E-01 -7.192338327487E-01 -1.205348521266E+01 6.724710867221E+00 5.370671312752E-01 -3.663897440500E-01 -3.963460696209E-01 -5.953315544814E-01 -1.351900082325E+00 -7.238536124198E-02 3.946298015099E+00 1.769333107306E-01 7.203415718611E-01 3.073002054524E-01 2.247996686870E+01
 -4.884616243685E+00 -3.694232735180E+00 5.996914800561E-01 -8.404723809941E-01 -9.392037501065E+00 -3.429958899156E+00 1.282489934936E+00 -4.108881692191E-01 -6.234481467673E-01 -6.375122728391E-01 1.346435368308E+00 -3.738003873827E-01 1.043250821862E+00 -1.538747699346E+00 1.272040371240E+00 7.582248329295E+00 -2.013658812066E+00 -1.282048480888E-01 -1.363165415538E+00 -6.494200916791E-01 5.143618382030E-01 1.117297946790E-01 -1.593891787898E+00 -2.977259821158E-01 9.018076793550E-01 1.183921575509E+00 -1.622153393263E-01 -2.905450405705E+00 1.654497937506E+01
 1.283916522918E+00 2.154632982425E+00 -6.300021134374E-03 1.199539668084E+00 -4.174294981873E+00 -4.101581019490E+00 -2.372168783932E-01 3.138707617896E-01 -4.760261270488E-01 -1.976214914867E-01 -1.744721841603E-01 3.378475261552E-02 9.579959672732E-01 1.049473050274E-01 4.383419107321E-01 4.250630603210E+00 -1.341374899848E-01 1.464613182826E-01 5.583729921545E-01 2.785737439714E-01 1.142254591133E+00 -1.218944708397E-01 6.037823367511E-01 -6.713938031858E+00 9.192938127081E-02 1.951128760175E-01 -6.421866978947E-01 -3.183564745148E+00 2.585282045916E+00 1.548821591700E+01
 -2.433475854021E+00 2.024462540115E+00 1.765688372244E+00 2.279131516248E+00 2.119062498661E+00 -1.022026869065E-01 1.406277475746E+00 -2.275284366904E+00 -1.864868987997E+00 -1.061070992445E+00 -2.708698041683E-01 3.866604633236E-01 8.129967425419E-01 1.210866706562E+00 -3.171194418097E-01 -3.251223812253E+00 -2.215181161820E+00 3.817517092362E+00 -7.566458658553E+00 5.892706984062E+00 3.839042573080E+00 -6.801855097027E+00 1.632097329397E+00 -1.683434899558E+00 -1.040208388449E+00 -1.694566813104E+00 -7.237047705787E-02 9.982210257361E-01 -3.255131038215E-01 -6.922827135832E-01 2.119173888961E+01
 -7.633175502696E-01 -2.447526606211E+00 -2.033311612948E+00 -2.294472166198E+00 -7.953875930769E-02 -6.504618751167E-01 -2.282711772366E+00 -8.321620644642E-01 -2.914479066860E+00 1.344517706190E-01 -3.248290720157E-01 -2.955231991706E-01 -2.657061203613E-01 -9.432496562194E-01 -2.763783892098E-02 -1.234172160025E+00 -1.031072449412E+00 3.290501189025E+00 5.465704637651E+00 -5.330411610485E+00 -4.008336615714E+00 3.401865359827E+00 4.282967200679E-01 1.457524451447E+00 -9.984785901127E-01 -5.246098067835E+00 -2.442663635326E+00 -1.975756763445E-01 -1.051097702120E+00 8.343811356227E-01 -7.471347852345E-01 3.229973319527E+01
 8.406064080517E-01 -2.069215360038E+00 -3.270409349509E+00 -2.113577889391E+00 -1.157308693779E+00 -5.713720344153E-01 -6.922718027572E+00 -1.461565730808E+00 -1.646546489406E+01 1.859850530238E+00 -7.552724674956E-01 -7.109883614259E-01 2.561838932007E+00 1.534774177448E+00 2.280941474458E+00 5.002255723472E+00 4.518355482654E+00 -7.421256564666E+00 7.852035862483E+00 -5.775892899433E+00 -3.914121524671E+00 9.228870001117E-02 1.484961309800E-01 -1.073175776346E+00 -9.992283802108E-01 3.801118426849E-01 -1.005045299427E-01 7.968391384217E-01 -2.379804310411E-01 -3.333594825132E-01 7.012886858050E-01 5.664526765766E+00 3.157192979921E+01
 -2.365107160695E-01 2.018056677572E-01 -2.299328839667E-01 9.205373011913E-01 2.897815312675E-01 2.086198862825E-01 1.227869772161E-02 -9.608218531746E-01 -9.556161556700E-01 -9.705601949201E-01 -1.416680469035E+00 -4.590852701870E-01 -1.187138450491E+00 -6.458264430676E-01 -5.750457250044E-01 -3.364764639246E+00 6.728819934919E+00 -2.102726372224E-01 5.972671632405E-01 7.683467538147E-01 -9.165127404648E-01 1.338262817488E+00 2.019876588240E-01 4.287909924016E-02 -9.126274348168E-01 4.022970886639E-01 -1.655272430635E+00 5.274535059847E-01 -3.802581929506E-01 4.462215457983E-01 6.817184128672E-01 4.842475555248E-01 1.627147882813E+00 1.358296031688E+01
 -6.167350442228E-01 1.322640233197E-01 -2.240476359295E+00 -7.739207883261E-01 -6.858105818157E-01 9.663019032921E-02 -4.664168777604E-01 -5.874621529458E-02 -7.623498011421E-02 -1.880222000421E+00 -3.339319921118E+00 -2.192326455229E+00 5.537667298118E-01 -2.663975792488E-02 1.581179930469E-01 5.616803291249E+00 -1.243569111830E+01 3.129879927510E-01 -4.253858529313E-01 -3.761448802385E-01 8.517382857459E-02 6.829244605953E-01 5.963044197572E-01 8.892150179996E-01 1.094158453413E+00 -1.144958799892E+00 1.427165564364E+00 1.371527019302E+00 -4.861001674658E-01 -1.007288435908E+00 -6.601737974921E-01 1.253396822383E+00 5.916105812849E-03 5.184516128635E-01 2.396815753045E+01
 1.191034790276E-01 -7.920688634524E-01 -1.618436324204E+00 -5.048391828601E-01 -5.704639375842E-01 -1.627707990310E+00 -2.224124480923E-01 -7.739573069239E-03 5.489006244542E-01 -2.462879230331E+00 -2.623977594017E+00 -5.548843367349E+00 -4.369729237160E-01 -1.059927986554E+00 5.438249967369E-01 2.086912960768E-01 1.630040526444E+00 1.735474725577E+00 -1.004750144974E+00 -1.376627091364E+00 1.088377394656E+00 7.356909660622E-01 3.298974259847E-01 -8.188164664528E-03 -1.057937166012E+00 1.997995048114E+00 -6.938613844249E+00 9.426547851725E-01 -4.056868089098E-02 7.324590071026E-01 -2.278217563635E-01 5.209966137597E-01 9.237210187797E-02 -1.313255445748E+00 -2.313529631096E-01 1.256887982721E+01
 8.846768102648E-01 -1.362804456204E+00 -6.623805698069E-01 -8.495416081244E-01 -1.376773374269E+00 -6.567039714918E-01 -1.899924154087E+00 9.174358623274E-01 1.254465807106E+00 -5.761576080126E-01 -5.915708370908E-01 3.448962998166E+00 6.655995469535E-01 -1.113525200910E+00 7.324212395110E-01 -3.208642671936E+00 1.794446380957E+00 2.556294234791E+00 1.240290150297E-01 2.095223698861E-01 1.354252369155E+00 -1.608455869484E-01 -4.676687515009E-01 -2.343104444639E-01 6.281150276462E-01 -1.169729156935E-01 2.401382101324E+00 6.060495364390E-02 1.276887364363E-01 5.291333434527E-01 -1.713028670913E+00 2.743514770914E+00 -4.495422458828E+00 -6.571915955239E+00 -6.106296767249E+00 2.438243781399E+00 1.883265844977E+01
 -1.311801549187E+00 -1.911753198905E+00 8.220954472357E-01 1.619561015575E+00 6.596383541865E-01 -4.604475700648E-01 1.167373154396E+00 -2.514703339613E-01 3.810969307996E-01 -1.401405734000E+00 -2.045629572470E+00 5.889375896125E-02 5.117221776149E-02 2.769969183872E+00 7.028075412905E-02 7.441400398108E-01 -1.801729747819E+00 -4.560950155979E-01 -7.914338041250E-01 -2.440578772103E-02 6.113614161711E-02 -4.892131330801E-01 1.638970550728E+00 3.335347807002E-01 -1.320313057667E+00 -9.653568238940E-01 1.092679198503E+00 1.758933205388E-01 -1.172029418839E-01 -1.040881032036E+00 2.950204978356E+00 -3.339346332444E+00 3.693227141945E+00 -5.761343410717E+00 -5.789679994666E+00 1.427643110509E+00 1.044424347176E+01 1.794868636505E+01
 9.073227135048E-01 -3.526475437892E-01 1.168976662763E+00 -5.349925027889E-01 7.375248485346E-01 -6.142388315091E-01 -2.879911447880E-02 -8.636249527242E-01 1.432621908356E+00 2.824706902518E+00 5.859655749185E-01 -1.371021820218E+01 -1.041071918713E+00 7.062874263118E-01 -2.489765312674E-01 1.649661505252E+00 1.815534679118E+00 5.655377193302E-02 5.972022249269E-01 -7.143107217151E-01 -1.606621322862E+01 -5.001000889039E-01 -6.997569786953E-01 -1.097250260626E+00 1.668466997403E+00 1.846202950850E+00 1.056950622010E+00 -1.064289512542E+00 -5.827864738231E-01 -6.293303183007E-01 -2.939905987012E+00 2.761975028650E+00 -2.535517249399E+00 1.364873010508E+00 7.366505343565E-01 -1.499235684680E+00 -1.090515467453E+01 -1.179372960729E+01 3.800027883145E+01
 -2.819564497717E+00 -2.452997986685E-01 2.093120644946E-01 1.502810113960E+00 -3.343186786187E-01 -1.035302425126E+00 7.666875212593E-01 7.983458633880E-01 1.418637305508E+00 9.173724260454E-02 4.017825021262E-01 6.478381598231E-01 9.885777268352E-02 2.588572973348E-01 -8.349543545171E-01 1.443952162028E+00 -2.157068313629E-01 6.438487408245E-01 4.466190075854E-01 1.131173478145E-01 -3.100716420762E-01 -4.210620382747E-01 -2.441299717058E+00 -1.430288531159E+00 -2.876386937599E-01 5.751434240227E-01 9.307700204925E-01 -1.598890541711E+00 7.442626554916E-01 3.274978595514E-01 -4.779493111917E+00 -9.195514712866E+00 -3.219484937437E+00 2.105223995864E-01 -3.348195895004E-01 -2.126965069858E+00 -5.548703473808E-01 1.163983818172E+00 -7.570796182317E-02 2.194346446137E+01
 3.798464932333E-01 -1.333948384923E+00 -1.033877064167E+00 1.361118178861E+00 1.005730398722E+00 8.221022653341E-01 1.569363487441E-02 -2.042710631283E-01 2.450342926795E+00 -6.121276190297E-01 1.623857086186E+00 -1.707701601266E-01 -4.350311352339E-02 -1.958346677653E+00 5.075977154393E-01 -8.773374924147E-01 6.015371584586E-01 1.720304429117E+00 1.250510899422E+00 2.891379011407E-01 2.813772118819E-01 7.181323346944E-01 6.967798862307E-02 -3.020437114031E-02 -2.481201174316E-01 1.319692279741E+00 -7.614542064865E-01 -1.121579947356E+00 -7.606522361083E-02 -7.108307470943E-01 -9.064648247336E+00 -1.163949465545E+01 -6.127766996029E+00 -3.212700440690E-01 -1.295315176127E+00 3.673441519876E-01 -2.959092214965E-01 2.242987162707E+00 -9.779702329616E-01 4.073072159566E+00 1.784619976832E+01
 8.609499689210E-01 -9.548586818217E-01 -6.448714096578E-01 1.624569655211E+00 -2.553784952213E-01 9.015784718323E-01 -2.456184839232E-01 -5.513950338004E-01 1.428684318425E+00 7.910366841780E-01 2.186752616635E-02 9.587728074923E-02 7.870941883034E-01 -1.051773469619E+00 1.776909143144E+00 -1.993483800093E+00 -3.037646517307E-01 -6.280365636977E-01 -2.940047015504E-02 6.203160597924E-01 -2.215695481407E-02 1.084332028971E+00 2.257326103330E-01 -7.328288427998E-01 -1.406052885325E-01 1.022653651851E+00 -5.680628329256E-01 1.730957569326E-01 3.863402102076E-01 -4.859837853459E-01 -4.387003148364E+00 -4.121759332765E+00 -1.404214255731E+00 -9.409574192474E-01 6.765228602009E-02 6.233081019619E-01 1.210189308745E+00 -1.280468168474E+00 7.507721413676E-01 6.844056081260E+00 3.253420250488E+00 6.053075195300E+00
 1.512156026837E+00 -3.964947994363E-01 1.224253618988E+00 -8.918757348799E-02 1.060032048196E+00 -4.223278676752E-01 1.362720333697E+00 8.358529678265E-01 2.970518350919E-01 -7.556552589217E+00 1.022299434127E+00 1.287684655902E+00 -8.503703453850E+00 -4.488319856829E+00 1.896863341544E+00 1.117142398472E+00 6.318122834296E-02 4.330322123486E+00 -1.291847981695E+00 3.935191441400E-01 3.795504868153E-01 -1.534784083869E+00 1.293646754711E-01 -9.486281991901E-01 -1.394716257373E-01 4.581894274266E-01 9.625848420278E-01 -3.402431277132E+00 8.647833912627E-01 -3.820192747459E+00 3.154905803891E-02 1.082991635779E+00 -1.775320733728E+00 3.665188030568E-01 -2.675547917892E-02 -9.213239150742E-02 -1.852385101526E+00 -1.002758305293E+00 2.534884340035E+00 9.040635147415E-01 7.784678383942E-01 6.177204562783E-01 2.060476192450E+01
 4.510918929210E-01 4.323159423752E-01 -1.473775769469E+00 1.381999547091E+00 -9.286149144299E-01 4.060037851652E-01 6.012546133245E-01 3.890132254522E-03 -1.160690019617E-01 3.605108118098E+00 -3.479179821985E+00 -7.374151404710E-01 -6.751211923616E+00 -3.271486269319E+00 2.524076985460E+00 5.412141456584E-01 6.157886127001E-01 -3.711927160982E+00 -4.341064218055E-01 3.467729838738E-01 -9.771709686672E-01 -1.626266642940E+00 3.248985912397E-01 -2.744386044836E-01 -7.288003381619E-01 -1.923326514543E-01 9.073057531232E-01 1.805587773258E+00 -2.298340892783E+00 3.672645002390E+00 -4.599404795606E-01 1.447246723834E+00 7.534218876551E-01 -8.553550948854E-01 4.729662749438E-01 1.925326485094E+00 3.172227007482E-01 -7.169159873088E-01 -4.932140982097E-01 -7.882051551049E-01 -1.022432709615E+00 9.079712646753E-01 4.778855153686E+00 1.925811036993E+01
 -1.224699286454E+00 -2.949595801129E+00 2.492595542196E+00 1.502041437039E+00 1.411718585045E+00 2.728238697763E+00 -5.769441021343E-01 -5.162736348942E-01 -1.410678765817E+00 3.079826988604E+00 -1.516580641027E+00 -1.057622740433E+00 4.360411868522E+00 5.062386997926E+00 -1.296068225464E+00 2.876506693083E+00 -1.776002597562E+00 -1.521559728741E+01 -4.844480127572E-01 -8.887773845423E-01 2.055764791782E-01 -8.244205438259E-01 -5.525956080132E-01 8.953140082457E-02 1.145265787436E+00 -2.837833666641E-01 -5.397496590977E-01 -3.018981592754E+00 1.243442308906E+00 -6.654059093246E+00 -8.291857815499E-01 -9.896119779323E-01 3.997257522367E-01 -1.025406027470E+00 1.908789295165E+00 7.021661630185E-01 3.751194239218E-01 1.303609465182E+00 -1.205387974245E+00 1.551914799290E+00 3.599853909315E-01 -2.918697140803E-01 -4.800102380688E+00 1.807723893918E+00 2.316602289397E+01
 6.163261372055E-01 -2.584528736203E-01 3.519428823053E-01 -9.983277871865E-01 5.103543606782E-01 -2.680517080673E+00 -2.850253687021E-02 6.022367256222E-01 5.996917797903E-01 3.895188556955E-01 1.812918170943E+00 -1.185789760935E+00 3.844421904764E-01 -1.239899806970E+00 -9.056732796526E-01 -2.211516903525E-01 -9.728670526311E-01 1.899279125237E+00 -1.083952323639E-01 5.214907784528E-01 1.316727159481E+00 1.469619899163E-01 -6.882195035222E-01 4.907695463080E-01 -9.910955296073E-01 -3.546167415411E-01 -1.753520209292E+00 -1.150666816590E-01 -1.832346044687E-01 -7.342176096847E-01 1.273272777148E-01 -5.119441156322E-01 -4.358173257559E-01 -4.517969270123E+00 8.182863320801E-01 3.479402678717E+00 -9.600046815878E-02 5.119091869079E-01 2.216846901724E+00 -6.725064587923E-01 8.710849256028E-01 -3.489573640173E-02 -1.213540752352E+00 -4.969835136455E+00 -2.339755445607E+00 6.891194860291E+00
 5.502063660886E-01 -1.008328571889E+00 1.147562558205E+00 9.635370475770E-01 8.797169362469E-01 3.074415307893E+00 -1.257016494469E-01 -3.991781094439E-01 9.671628402989E-01 1.509768245905E+00 1.019900273043E+00 -8.206042874330E-01 1.833942557766E+00 5.649591428160E-01 -1.262355988635E+00 -9.724690260376E-01 -1.407137685644E+00 1.754179624984E+00 1.581528694595E-01 -2.743180503541E-01 9.910814339914E-01 8.363454460412E-01 -3.866040833409E-01 2.129153411127E-01 -4.753309281328E-01 -9.676961555743E-01 -4.071592599655E-01 -1.745152859123E+00 2.145430523789E+00 -2.201412240976E+00 -4.487327123564E-01 -4.251190148014E-01 4.025147046965E-01 4.312311586944E-01 -1.081263635540E+00 -1.480130924988E+00 -2.039892816326E-01 1.040401654416E+00 1.241198987724E-01 3.154510036287E-01 5.860920031063E-01 1.275309127392E-01 -5.313045788023E+00 -1.226428790459E+01 -4.243071376699E+00 4.370451757853E+00 1.283107782439E+01
 9.120148255627E-01 -7.909832715006E-01 4.191947553396E-01 -3.764466439951E+00 2.265252226746E+00 -1.546550238407E+01 1.021627002192E-01 3.179475198318E-01 -3.349313872173E-01 -7.392192445777E-01 5.779765899458E-02 1.539628375070E+00 -1.418893263926E+00 -6.915151530486E-01 -3.338140742069E-01 7.260032642435E-01 1.114984370195E+00 -4.960100309861E-01 -1.390727705692E-01 -6.571696238051E-03 -3.693988624431E-01 -1.536625884211E-01 8.247538741795E-01 -1.237459778951E+00 4.649470523370E-01 1.256493598667E+00 -4.951731028789E-01 3.248680290797E-01 -1.149190945690E+00 6.914850418249E-01 2.778873816947E-01 2.317432058027E-01 4.939641421170E-01 3.746864609907E+00 -1.345009606707E+00 -2.277246744392E+00 2.861428920119E-01 7.470544803420E-01 3.557352894517E-01 1.509300997678E+00 -3.574723200732E-01 -3.258736009079E-01 1.137075255318E-02 -3.925159743252E+00 -2.050602574416E+00 -3.065840915044E-02 1.905868545332E-01 2.131553916798E+01
 7.706143472056E-01 2.164592726053E-01 1.103409407851E-01 -8.677654415148E-01 2.005569455884E-01 9.423770364926E-01 -1.382903782997E+00 -1.165874769230E+00 -6.393679070813E-01 6.391936918776E-01 4.909959632664E-02 -3.558319529877E-02 -1.092390273396E-01 -3.509099737071E-01 4.891810432110E-01 3.086648679219E-01 -8.792991079461E-01 1.731899979743E+00 -1.797719731572E+00 -3.952862693341E+00 -1.790052372438E+00 -3.107552181248E+00 4.496636587923E-01 1.276411001043E+00 -3.803405266682E-01 -2.251556763338E+00 -1.550351874257E+00 7.829866793056E-01 3.079972847125E-01 -1.012531974799E+00 5.795845260344E-01 2.905248281697E+00 -8.277069408123E-01 -6.215801206838E-01 1.416038618328E+00 9.669625245270E-01 -6.377635134335E+00 -6.766018728915E+00 2.543273752707E+00 -8.899041198270E+00 3.408443448311E+00 -1.150458944052E+00 7.307285382247E-01 1.338297667430E+00 -1.264383034454E+00 -7.781942733702E-02 -1.011012491425E+00 -1.579741258503E+00 1.713194838046E+01
 3.460771112895E-01 1.403787240677E+00 9.697283405584E-01 -8.116994266854E-01 -5.386462859105E-01 1.594065704059E-01 7.112058872171E-01 1.024824332319E+00 -1.064055596852E+00 8.201176403324E-01 5.987978588159E-01 -2.767064820628E-01 -8.658341657131E-01 1.834553493542E-01 -3.956749524301E-01 5.382708878925E-01 -1.426406467432E+00 -3.100526940332E-01 -1.705663969431E+00 -3.691137156992E+00 -2.947938098935E+00 -2.153245751070E+00 -2.095643871859E+00 6.668812620594E-02 -6.561667487709E-01 -6.157056194459E-01 1.053897024675E-01 7.121378655777E-02 1.564145141125E+00 -5.088201566758E-02 -5.160193104622E-03 -9.551104655413E-02 9.077206623550E-02 9.960142884047E-02 6.583157218518E-01 1.489978278989E-01 -6.738412770563E+00 -8.930549740271E+00 4.857224725698E+00 3.036381041588E+00 -6.921810280810E+00 5.225191769529E-01 9.918354208654E-01 1.535345194870E-01 -9.717074758531E-01 -4.197204493504E-01 3.717129913826E-01 -9.994523572772E-02 5.592531869046E+00 1.803860597410E+01
 3.945559148446E-01 7.083360955760E-01 5.171308675351E-02 6.279663371157E-01 -9.435560101885E-01 7.419811753485E-01 -4.242554087470E-01 7.155750701955E-02 1.668875792345E-01 -9.381512266506E-01 -1.149856274940E+00 5.762706149321E-01 -5.884927436930E-01 -4.020277120601E-02 -5.178679322947E-01 1.111707255621E+00 3.245921229466E-01 -4.303672528394E-01 -2.925371401250E+00 -3.060435452869E+00 -3.376178323255E+00 -1.909660977319E-02 1.438054244600E-01 -1.099933696461E-01 6.958603473485E-01 -1.447858263095E+00 1.207958847816E+00 -6.183321651100E-01 -4.903761657453E-01 6.748995055954E-01 -7.590780380739E-01 9.595145100645E-01 7.324623676362E-01 -8.394174120110E-02 1.252544114567E+00 2.064403345043E-01 3.856181540861E+00 4.961919779353E+00 -4.176526051073E+00 9.013548750271E-01 4.700279543250E-01 -5.679478391205E-01 -2.841214058217E-01 -7.016313069776E-02 2.428450739698E-01 -9.213897822329E-01 3.673154059464E-01 -8.120870186171E-01 -9.732846443725E-01 -1.865088801977E+00 5.159386008743E+00
 -2.433091583004E+00 -9.855067838189E-01 1.288741609942E+00 -1.486416425440E+00 2.747092667965E-01 -8.621491224043E-01 -1.481374077732E+00 -5.186712265004E-01 6.197480316278E-01 -5.230565308363E-02 -2.013592615788E-01 -5.336908197540E-01 -1.881571891484E+00 -8.903951843500E-02 -3.008608565593E-01 -6.477351415216E-01 8.101882310125E-01 7.061548147610E-01 -4.974798198863E-02 -6.968132675232E-01 8.114594382179E-01 -9.427962651538E+00 -8.843292379648E+00 3.981604386544E+00 -6.037955279589E-01 -7.716189388546E-01 -3.407744823113E-02 8.915691227738E-01 -1.050602325316E+00 1.055645642635E+00 4.307500926163E-01 3.452416451500E+00 -1.111163151761E+00 5.833424209073E-01 -8.986341354480E-01 3.747217732243E-01 5.726104532060E-01 -6.451034156814E-05 -1.827966111020E-01 -8.070209939820E+00 -7.963090586135E-01 -6.699409607451E+00 -1.512883133078E-01 1.457588515932E+00 2.502415397805E-01 5.065191690500E-01 -9.063346876838E-01 -3.133911941314E-01 2.166746014279E+00 1.455755914709E+00 9.916628872327E-02 2.129297767789E+01
 -9.339337783593E-01 -2.603892966868E+00 2.468713357845E+00 -2.196924406021E-01 -6.333435986944E-01 -2.077970411344E+00 -2.535634621538E-01 1.941788599918E+00 9.166485008599E-01 -1.615087422305E-01 3.007040082794E-02 1.927115517817E-01 4.985654113674E-01 4.603926657848E-01 6.478064025543E-01 9.341730336121E-01 -2.611402780632E-01 7.014851127294E-01 -1.786104931002E-02 -7.954599827846E-01 9.979697170983E-02 -1.021729366584E+01 -9.390837853619E+00 4.374830939317E+00 -5.492619169535E-02 -6.951280120311E-01 3.883595699437E-01 -2.826706035886E-01 8.982444391036E-01 -1.161119022017E+00 1.100215508957E+00 -2.944476674846E+00 2.403409964789E-01 2.884027032097E-01 -4.671959568063E-01 3.294194059213E-01 6.465224000741E-01 -5.129740207621E-01 9.267272966537E-01 2.676425529947E+00 -1.124479838581E+00 1.139352366626E+00 -4.892835958882E-01 5.782686254188E-01 8.892949124554E-01 -3.155298449365E-01 -1.345104221992E+00 1.721160856202E+00 -4.719546366651E-01 1.147572377292E+00 -1.120386678621E+00 7.085623537597E+00 1.550235329235E+01
 4.921520008746E-01 5.108540078872E+00 -1.286098763703E+01 -1.905721926900E+00 -6.926250252079E-01 4.526415080751E-03 -7.142879859996E-01 8.495893295194E-01 -1.891836906917E+00 4.468143600086E-02 -9.775958989741E-01 -2.112679206202E-02 1.407602372543E-01 4.986494365803E-01 4.796905258087E-01 1.183092270281E+00 7.198393340513E-01 -4.746209759760E-01 -3.244429846733E-01 -2.745862054788E-01 3.466930945660E-01 1.125804246005E+00 2.003059883868E+00 -1.295889329162E+00 1.154238878865E+00 -7.677481162315E-02 1.766523174990E-01 9.486044827286E-01 1.814168927825E-01 8.316108830535E-01 1.189097264979E+00 5.304900791260E-01 9.537735402454E-02 4.742595129499E-01 7.564626805115E-01 4.338620921089E-01 -1.557118856836E+00 -3.066898374725E-01 -2.520079490888E-01 -4.061370908442E+00 7.398243018526E-01 -4.585051593575E+00 -5.684340807052E-01 -4.374259152292E-01 -1.626046614857E-01 5.273681456828E-01 8.838155612389E-01 -1.285569277267E+00 8.555687887588E-01 5.676988028627E-01 4.978637432650E-01 1.706400727521E+00 -9.858179402303E+00 1.867683787999E+01