#BIOSYM hessian 1
@Type: Hessian Update
@Units
 distance: 	A
 energy: 	Kcal/Mol
#header
@natom 19

#label
L1      L2      L3      L4      L5      L6      L7      L8      L9      L10     L11     L12     L13     L14     L15     L16     L17     L18     L19

#element
Li Li Li Li Li Li Li Li Li Li Li Li Li Li Li Li Li Li Li

#matrix
57
 1.922575411758E+01
 5.314370881540E-02 1.693946375417E+01
 4.502033373880E+00 -2.861589830473E+00 2.115206216551E+01
 -3.235963259767E+00 -1.849302009834E+00 -3.218037233961E-01 1.594212029786E+01
 -1.927723793887E+00 -3.683379566138E+00 -4.018070072658E-01 -1.024218508849E+00 2.074010307210E+01
 -7.432125996368E-01 -1.196361345477E+00 -1.724754038833E+00 1.963115691864E+00 -2.015738911236E+00 2.248510842774E+01
 -6.599380003978E-01 -2.422740989655E-02 8.032486749608E-01 -4.780962860431E+00 3.023373655918E+00 3.097394464162E-01 2.147813906113E+01
 6.070176232675E-01 1.814846739043E+00 2.818684877397E-03 1.224573130231E+00 -2.183633881244E+00 -4.401128623182E-01 1.413541665205E+00 1.824952330992E+01
 -7.263015394095E-03 -6.168014643137E-03 1.277387341270E+00 -1.107615989069E+00 2.906611923499E-01 -3.027276184605E-02 -2.385832434852E+00 -7.719466279568E-01 1.875530370871E+01
 -7.421200027651E+00 -5.035891560485E-01 2.675579440234E+00 -4.178676948052E-02 1.061821748149E+00 6.558555184216E-01 -4.102498177296E+00 -2.570405461306E+00 -2.306809428719E+00 1.765387317018E+01
 3.841710975496E-01 1.843973522120E-01 1.132840983165E+00 1.384995435143E+00 -4.732696373700E+00 -3.380469616064E+00 -1.945222716882E+00 -1.194459958160E+00 -1.205864319126E+00 5.751536288685E-01 1.050077506294E+01
 5.821510341498E-01 3.895069429314E-01 -7.031008155851E-01 1.111796968915E+00 -3.795109708427E+00 -2.712631363555E+00 -4.766100814560E+00 -1.675178030438E+00 -3.303151411201E+00 -1.972059736071E+00 2.446191430202E-01 3.229228846931E+01
 -1.548436326729E+00 9.851054159776E-01 -5.672284923787E-02 1.094814908735E+00 -1.310574729526E+00 -2.173097680195E-01 -1.249486675252E-01 -1.343285077646E-01 2.847277105420E-01 -3.122074732524E+00 -2.277698988806E+00 2.598768096868E+00 1.734215138227E+01
 1.182839762948E+00 -4.669444419475E+00 -7.025217961900E-02 1.747871108357E-01 -8.557245069056E-01 1.295782328353E-02 -1.460297920896E+00 -5.929273436989E-01 -1.276096315916E+00 -1.067354564668E+00 -3.757617661421E+00 2.792775147586E+00 1.901416861957E-01 1.996681665797E+01
 -6.827421472059E-02 5.791735330530E-01 -2.954258333753E-01 -4.684593732466E-01 6.902640759783E-01 1.082314007135E+00 8.555318272915E-01 -9.843718661201E-02 1.093161345466E+00 2.664879097680E+00 2.447409625915E+00 -2.230281592915E+00 9.263639833551E-01 3.932505450039E+00 2.471861488716E+01
 -1.651585214767E+00 -2.424451758018E+00 -2.310535090017E+00 -3.538238575416E+00 -1.051407692190E+00 4.051019319351E+00 -1.150633035249E+00 -5.991447016824E-01 -7.480819952720E-02 1.505669333219E-01 -8.993834756851E-01 -1.979166430554E-01 1.539847338968E+00 1.080275133943E+00 -8.044751301063E-02 2.058616366899E+01
 -1.837270786187E+00 -3.133142386713E+00 -3.422521392991E+00 -2.266770213049E+00 5.351862107815E-01 2.250612679735E+00 1.377750340169E+00 4.091045963631E-01 3.590991283664E-02 2.038782209387E-01 -1.279984762567E-01 1.534790343802E-01 -5.295540277649E-01 1.591614960316E-01 4.008059891215E-01 1.757193306863E+00 1.729808367529E+01
 -1.400078734217E+00 -3.892217046893E+00 -7.063194720942E+00 4.516527392127E+00 1.488180405097E+00 -4.804392987643E+00 -1.994762748700E-01 -8.737145456254E-01 -1.222637528021E+00 3.178791690922E-01 2.093976665616E-03 -5.693750822379E-01 5.050545163357E-01 -4.698521688978E-01 8.819665332536E-01 9.621399035469E-02 -3.754785463182E-01 3.127110642900E+01
 -4.381931962851E-01 1.118713880363E-01 1.270230469132E+00 -3.435708281020E+00 9.605330933923E-01 -4.175964488099E+00 -3.321220315375E+00 3.262152147558E+00 4.596479169453E+00 7.857771649029E-01 3.457738735989E-02 5.899847728749E-01 2.122802311084E-01 -6.596580114823E-01 4.890447548338E-01 -4.292418629887E+00 4.939410662661E-01 -2.402958745868E+00 2.339503904049E+01
 -1.373058418317E+00 8.255884978211E-02 -6.694366512510E-01 1.352613336511E+00 -4.368673147363E-01 2.685810402602E+00 1.847806901917E+00 -3.332393007777E+00 -4.633354542725E+00 1.448120277336E+00 2.151079136838E-01 -6.261827054101E-01 -1.938162004835E-01 -8.552767351539E-02 8.853299579549E-01 -1.678982240151E+00 -1.600867211408E+00 9.761399935994E-01 -6.465614527128E-01 2.168834055970E+01
 -1.595191570145E+00 -3.265293220315E-01 -4.541401026541E-02 -6.291016313418E+00 2.286477049663E+00 -1.209753046059E+01 4.981075197138E+00 -3.955567237563E+00 -7.639584686748E+00 2.385525177297E+00 -1.494828509229E+00 7.701303435216E-01 -6.032627500669E-01 -9.943307344587E-01 -8.466143673351E-01 -6.024447139141E-01 -6.900264347774E-01 6.359926004204E-02 -1.738160401560E+00 4.032654500581E-01 3.971877923757E+01
 4.233089060378E-01 -5.230108468421E-01 -5.066932046809E-03 3.436883233290E-01 4.443331413796E-01 1.498611308944E+00 -3.141541803209E-01 -4.431910215937E-01 2.868476246535E-01 1.241205753609E-01 -5.354370852028E-01 1.005296055531E+00 1.331185591302E-01 -2.091185749773E-01 1.085030068420E+00 2.840682678302E-01 8.803169298347E-01 4.284866200753E-01 -2.646566219734E+00 2.314491765073E+00 -7.214976616810E-01 2.005697379630E+01
 7.970867496935E-01 -1.184255579733E+00 1.320092034593E+00 1.838669894423E-01 -6.727446346858E-02 -5.812811138142E-01 -4.738119794605E-01 -4.081384867892E+00 5.537304681258E+00 2.787586619290E-01 1.433810848085E+00 6.063159657251E-01 -2.167510607407E-01 1.136526293177E-01 -2.708639731358E-01 1.285725399407E+00 -2.526128244051E-01 1.933655545189E-01 -4.457362664823E-01 -5.025080447875E+00 1.687567346600E-01 5.244777720482E-01 2.216480418037E+01
 1.218687736982E-02 7.161293773151E-01 -4.569757744733E-01 -6.182567410118E-01 9.940838830687E-01 -1.385140997351E+00 7.068421325761E-01 6.064507305097E+00 -8.162809130414E+00 -1.114520423422E+00 -1.241017715001E+00 7.250395396525E-01 -8.995662807296E-02 7.956070254080E-01 1.119381620468E-01 -7.297974946759E-01 -1.745343300594E-01 -7.616525451868E-01 6.227708168371E-01 -2.003830433458E-01 2.609770312121E-01 -1.947895397362E+00 1.359447701985E+00 3.388046148526E+01
 1.440853448650E-01 -2.365320782343E-01 -9.466880611760E-02 9.052074138315E-01 1.160628784546E+00 8.457214789152E-01 -1.072281172771E+00 -1.877598585537E+00 -2.109641277726E+00 -1.395953282415E+00 9.103597649496E-01 -6.065322367648E-01 -5.886070240077E+00 -3.872999849863E-01 -3.353561577974E-01 -3.238972368015E-02 1.655267475612E-02 8.098205022524E-01 -9.807869474577E-01 7.666219206474E-01 -3.392219954068E-01 2.784468880998E-01 -2.392735976647E+00 -1.058509240091E+00 1.868314984506E+01
 -5.273514345165E-02 1.520592586454E-01 -6.660468341875E-01 1.119681544070E-01 -5.824758628386E-01 -1.905623674903E-01 -2.063247821915E+00 -5.898325527432E+00 2.424704371492E-01 2.140781838010E+00 -2.422218917005E+00 2.942826140751E+00 1.233389590849E-01 -3.093980013724E-01 -6.299213275442E-01 6.316408465611E-01 -3.381020617754E-01 -1.485262197762E+00 6.167197048955E-01 7.988616636745E-01 5.971280305439E-01 -1.264572903807E+00 -3.256607373430E+00 -4.521996219196E+00 -1.437467127044E+00 1.757166054625E+01
 -7.795424184348E-02 6.090142915251E-01 3.943045338839E-01 6.327511526690E-02 4.325497684976E-01 5.218076814840E-01 -2.467403431284E-01 7.713850733967E-01 -3.805455855941E-01 -3.652670946517E+00 2.609704133151E+00 -2.916861921183E+00 -1.156951513101E+00 2.839726118023E-01 -1.096731598242E+00 -7.784960776733E-01 5.813234855012E-02 -2.505927885880E-01 1.017546819064E+00 5.382560234326E-01 -6.337139131221E-01 -1.379554293230E+00 -4.357826265187E+00 -6.741086417344E+00 -2.936971702881E+00 1.904618771855E+00 1.801950072824E+01
 -1.555710875300E-01 1.130605790996E+00 4.192989053043E-01 2.463638626556E-01 -1.219884846543E+00 -7.938287180232E-01 1.392233178737E-01 9.378517824970E-02 -7.827997349834E-01 1.020706163494E+00 9.158303237359E-01 -3.979898552313E-01 -2.677890740030E+00 3.107626807264E-01 -4.197027428288E+00 -1.796891422551E-01 7.322403873216E-02 1.967268797476E-02 9.778860613726E-01 -1.563435728501E-01 9.532459484554E-02 -4.630257451675E+00 -9.586575899493E-01 -1.020733325320E+00 -5.703913387114E+00 -9.046208500724E-01 6.429169683487E+00 2.310208059058E+01
 2.030951556501E+00 1.397743850079E+00 -7.571434920255E-01 -1.264833859458E+00 1.750012523670E+00 -1.255861781577E+00 1.226679180194E+00 6.288089931122E-01 1.075212831599E+00 -2.757886664658E+00 -3.800423159055E-01 -3.847477909153E+00 3.681247588047E-01 -7.340400087287E-01 1.270031113954E+00 4.756606027652E-01 -1.089324777504E+00 -1.017737566873E+00 -6.472066795481E-01 -1.230760245723E-01 1.654240942795E+00 -3.182898953558E+00 -3.173621107492E+00 -1.502942861886E+00 -4.797601870541E-02 -1.000861522948E+00 5.901201914056E-01 -1.701272219417E+00 2.074224060848E+01
 -8.290972875797E-02 1.337938008400E+00 -7.842763942439E-01 4.547267513323E-03 -4.293546255101E-01 -9.716950293308E-01 -1.618905454793E+00 5.417671228317E-01 1.472468880128E-02 -7.213947768984E-01 -4.696275333054E-01 2.683502937247E+00 -4.910756661889E+00 1.589764049803E+00 -1.231475559636E+01 3.216617013216E-01 6.460677487593E-01 -1.844344643412E+00 3.581845900425E-01 -4.193270514199E-01 -1.131932141276E+00 -1.306310806978E+00 -1.442539824573E-02 -1.281064784255E+00 5.358000693548E+00 2.271216138608E+00 -5.160318101984E+00 -1.397002368551E+00 1.416237310642E+00 3.528855497420E+01
 3.617554187116E-01 5.583815957247E-01 -7.177716791834E-01 -8.355682475826E-01 9.299214616574E-01 -5.030088080624E-01 -5.877341504733E-02 -4.148370611086E-01 8.840704609217E-01 -1.053919005436E+00 -6.810071697107E-01 4.355378847541E-01 3.669789183097E-01 4.347510450760E-01 -1.112353521160E+00 6.384589668659E-01 -1.304774402286E-02 -6.335891262574E-01 1.255238503853E+00 5.279526439139E-01 1.008049684445E+00 -3.907622091201E-01 1.337619599987E+00 1.248871880217E-01 -1.617549597045E+00 -2.468322032942E-01 8.588500161540E-02 -5.970572903981E+00 5.106545198555E-01 5.482772167423E+00 1.984466291184E+01
 1.003692664073E+00 2.560149157228E-01 -9.939677240812E-02 -5.330761037293E-01 1.790599324788E-01 -1.638761316762E-01 1.539760683564E+00 2.525633959543E-01 4.862304865851E-01 2.388000599921E-01 -3.300717527197E-01 -1.250289644048E+00 -1.244572873851E+00 -1.859202676728E-01 1.914806430343E+00 4.134523060556E-01 1.101812553860E-01 -4.326611222188E-01 -1.931563578013E-01 9.330298784227E-01 1.133005914103E+00 -4.222409609496E-01 -3.146162806323E-01 -1.228904004145E+00 -2.094322550791E-01 4.028830170841E-01 -3.049365849464E-01 4.390095757323E-01 1.230799221034E+00 -1.074487689549E+00 1.755588101751E+00 2.065431768762E+01
 7.720597127041E-01 1.533858480230E+00 1.721826783590E-01 4.227805195105E-01 2.663540750239E-01 -8.303388377470E-01 5.801814490758E-02 4.310593835545E-01 -7.734506455026E-01 -8.972739481549E-01 9.149412249900E-01 -3.868305803696E-01 -7.654373703075E-01 -1.015746921009E+00 1.800762204406E+00 -3.120395647401E-02 -1.479554779818E+00 -8.730704164562E-02 -1.449699049851E-01 1.381493385283E-01 -5.065274672492E-01 3.237480620880E-02 -5.783034520521E-01 -7.591326169181E-02 4.312202751905E-01 5.117628016481E-01 1.030415471697E-01 5.739222118274E+00 2.948145476588E-01 -3.183973370766E+00 -1.218333670671E+00 -3.215276455964E+00 1.820574225574E+01
 -1.981367451276E-01 2.311088290528E-01 -1.003823636295E+00 6.859076247383E-01 -8.572939831322E-01 7.926331379346E-02 7.045152660717E-01 5.255567906505E-01 -3.015465581601E-01 1.600069984890E-01 -7.097320441320E-01 -9.556495451989E-01 -2.887807111803E+00 3.251586347464E+00 3.049113473490E+00 -1.562477475827E+00 -9.518311336805E-01 -8.939725535013E-01 -2.525928344269E-01 -3.323086954963E-01 -4.138527173469E-01 2.213876472753E-01 -1.025353881738E+00 1.100623764330E+00 -5.474497838281E-01 9.136490584811E-02 -9.137960037498E-01 -3.267906092390E+00 2.425134166997E+00 3.468452001980E-01 -5.302210812933E-01 2.359278073027E+00 -2.786661228787E+00 1.836546088174E+01
 1.649436671734E-01 -5.219253656519E+00 6.321550065441E+00 -4.557347509334E-01 8.195532759670E-01 -1.006323382039E+00 4.705502086119E-01 3.690984447293E-01 -6.649238001550E-02 -4.726417455185E-01 -2.721535258507E-01 -3.632892151925E-01 4.004174355863E+00 -2.777944567630E+00 -5.934626500793E+00 1.317093479826E+00 -4.927360744812E+00 -6.425583469677E-01 7.672981406267E-01 -9.665709290569E-03 -5.603572767379E-02 -7.368386422524E-01 9.877370250411E-01 6.398620175213E-01 -5.631318164026E-01 9.111643347136E-01 -1.571482998747E-02 -1.322937392850E-01 -2.185132624949E+00 1.124697600047E+00 2.841349158240E+00 -4.108966441954E+00 5.225675187210E+00 -2.268590800892E+00 2.417677003483E+01
 -7.260454329777E-01 5.159135296781E+00 -9.566325615440E+00 1.323054457300E+00 4.068936979633E-01 2.745481809772E-01 1.196259594060E+00 4.899272608259E-01 3.366106263790E-01 -1.414523849539E+00 -3.020568370987E-01 4.472416001282E-01 4.583046664330E+00 -4.475685561042E+00 -7.773334766972E+00 -3.284805357140E-01 -1.290424783566E-01 -1.229464093658E+00 2.904568992630E-03 -1.609398664901E-02 3.302393498230E-02 -4.211718443537E-01 -5.430036739777E-01 -7.448084747595E-01 8.957191213882E-02 3.751016270026E-01 4.187540110183E-01 -2.833823693706E-01 5.141693998734E-01 -4.046926633670E-01 -3.302175958458E+00 4.098769578690E+00 -8.414512014105E+00 2.080570144900E-01 7.953351404409E-01 3.792111601780E+01
 4.610137563970E-01 1.881844321621E-01 -1.181264318985E+00 -4.614665308517E-01 -9.455516392058E-01 -1.514800412159E-01 8.838588922364E-02 1.236644823403E+00 -2.686375930514E-01 -5.049669633355E-01 2.788238866510E-01 -5.837923786469E-01 4.002611538408E-01 8.393361289146E-01 7.105084970828E-01 -2.703281275894E+00 -2.192407140584E+00 4.068495251846E+00 -6.638339219829E-01 -8.153324797771E-01 -6.296298929327E-01 3.966074758202E-01 -2.560852798352E+00 1.455510935168E+00 -1.279627321224E-01 5.023327562521E-01 8.106180330557E-01 -1.508117326838E+00 9.644420107151E-01 1.116596528082E+00 -4.003045982075E-01 6.748988814018E-01 -1.221148055061E+00 -7.195336334403E-01 1.072915185192E+00 2.621162985848E+00 2.278544182423E+01
 2.925699340599E-01 3.434547265085E-01 -7.048362389536E-01 5.077981396000E-01 -2.494639451528E+00 2.622916050069E-01 -8.061577568399E-01 -7.720275519039E-02 -5.863109513234E-01 1.874376452125E-01 9.332647752033E-01 1.378195279142E+00 7.010339725793E-01 -1.053850432181E+00 -7.651440930765E-01 -3.521752071454E+00 -2.185992766863E+00 4.120647123734E+00 -4.645051341965E-01 3.131708706377E-01 1.592263590732E+00 9.846335854204E-02 3.564830489375E-01 -3.563211369518E-01 -8.423093608045E-01 -3.106672765040E-01 -3.160889261792E-01 9.382821539784E-01 -1.375842867354E+00 -1.841366394817E+00 1.468049153701E+00 -6.649687622506E+00 -2.578925043952E-01 1.667804122222E+00 -5.455248656383E+00 -5.625706188630E+00 -8.498207654607E-02 1.895347812415E+01
 -9.151692843987E-01 -2.030151445175E-01 1.973049132707E+00 6.911766950801E-01 -8.052022463545E-01 2.263607130492E-01 -6.779559993130E-01 -5.605540926516E-01 -8.463174565208E-01 1.476030824477E+00 -7.718502236961E-01 1.107698798248E+00 1.549221603361E-01 5.522973493304E-01 -5.266226855970E-01 4.177110913831E+00 4.282965158504E+00 -6.790128460105E+00 -3.390947563460E-01 2.219800471102E-02 -1.060982150063E+00 1.408568217689E-01 -8.358379325205E-01 -4.436261373205E-01 1.202884252420E-01 1.744254757815E+00 -1.036074194680E+00 2.811235930033E-01 -2.673962993141E-01 -3.065071127327E-01 -1.123607587681E+00 1.741136518510E+00 -1.676404802871E+00 4.003137292140E+00 -5.302604803365E+00 -6.635544294504E+00 -4.383985709101E+00 1.620332824971E+00 2.022141459624E+01
 4.827898592921E-01 1.641876496171E-01 -1.126734429988E-01 -3.736726289987E-01 4.663915062774E-01 -1.084723546234E+00 -4.859203288022E-01 4.033977834037E-02 9.384209223987E-01 -2.667765622984E-01 4.109253785619E-01 -5.506006547830E-01 -7.020119656131E-01 -7.408732320435E-01 6.759432996086E-01 -3.233728197795E+00 -2.475634927128E+00 -3.267053090344E+00 -6.785968653269E+00 1.761896731726E+00 6.922449047506E+00 1.340579921556E-01 6.618580729749E-01 7.979100152418E-02 3.356233333583E-01 -1.254719529189E-01 3.058684704740E-01 -1.810829263972E-01 1.002052411311E+00 -7.670623977142E-01 1.735857477926E-01 1.008936477037E+00 4.914419281801E-01 2.111425810988E-01 -4.264311525098E-01 -1.261418217448E+00 -3.111817878610E+00 -2.520402339962E+00 -2.151401160425E+00 1.899699757811E+01
 -8.208171221824E-01 -8.287847106000E-01 5.151853140239E-01 -3.360340211486E-01 -1.010341414183E+00 -3.866165107631E-01 7.790613110554E-01 -5.862413382943E-01 1.542737643585E-01 4.801065811557E-01 -1.958208834205E-02 3.187764953295E-01 -5.733052383878E-01 -4.685169121144E-01 5.566692106709E-01 -1.441424689595E+00 -7.084808324973E-01 -3.460612820820E+00 2.106133682151E+00 1.247136176762E+00 -1.793664506657E+00 1.562839246879E-01 1.082959991932E-01 7.617422495642E-01 1.622772290753E-01 -1.488077480818E-01 -1.496681899221E-01 9.521897613288E-01 7.727248071062E-02 -5.261087671121E-01 -2.123997244690E+00 5.959211552668E-03 3.782582180415E-01 -4.295254851398E-01 2.855831180157E-01 -1.620385057785E-01 -3.250075361261E+00 -3.005796119802E+00 -2.816251494037E-01 -1.349166617738E+00 2.005702760523E+01
 -5.759002055193E-02 -2.209422150920E-01 -7.794113836129E-01 -2.748540134478E-01 7.526863966047E-01 2.280194912477E+00 3.126873395004E-01 -4.007554771350E-01 -2.376214699825E-01 -1.651495657865E-01 -9.223835079949E-01 6.098731884202E-01 8.113567960669E-01 -3.284625984840E-03 -4.289607068355E-01 -4.044166881083E+00 -3.316257994295E+00 -7.863608464411E+00 5.613992712732E+00 -1.985379418099E+00 -5.338231584875E+00 -9.336793728992E-01 -6.637398383087E-01 5.261730561860E-01 -3.442650159927E-03 7.429059867216E-03 -1.229547018837E+00 -1.387825907287E-01 4.120426470565E-01 5.122454284170E-01 9.541002344591E-01 3.300890401323E-01 9.997069899654E-01 7.856175692489E-01 9.245269752949E-01 -3.587869939189E-01 -7.564000548777E-01 -3.304014253557E-01 -6.259508486323E-01 -1.486355678196E+00 4.592821091784E+00 1.800173946807E+01
 -6.559133060549E-01 -2.150925527535E-01 2.832879959603E-01 1.897803478184E-01 2.586610896494E-01 -1.734949776903E-01 -3.709257979279E-01 -2.660042944112E-01 -6.868733709898E-01 -7.205746549088E-01 -5.144244338503E-02 1.508385743272E+00 4.060006500440E-01 7.461395197661E-01 3.273311168893E-01 -4.675999055946E-01 8.296360014052E-01 -6.848986504278E-01 -1.027746659613E+00 1.525809275011E+00 -3.644062832876E+00 1.058728531118E-01 1.530655526543E+00 1.659678374151E+00 9.720717341688E-01 -1.495879775935E-01 1.887714154660E-02 3.954140939222E-01 -6.697944407809E-01 8.300896407018E-01 -3.620503255880E-01 -6.495165130390E-01 -7.999840527976E-01 -1.546946044942E-01 -8.970275506080E-02 -7.660458499641E-01 -6.651533748685E-01 -1.057489423888E-01 5.007879591496E-01 -4.626970438919E+00 3.194558838398E+00 -3.798839649414E-01 1.841702626690E+01
 -6.574413114666E-01 7.718648050017E-02 7.265328533628E-01 -2.744074339662E-01 6.477829548550E-01 1.551767963916E+00 7.884668197043E-01 5.488594597889E-02 -2.892337729588E-02 3.615629754708E-01 1.837171688137E-01 -8.068513592554E-01 -2.290076943447E-01 -1.081349417910E+00 8.907972457758E-01 -3.053976907453E-01 1.041898463089E+00 9.011409803441E-02 1.454446801859E+00 -2.568286584476E+00 4.509666967777E+00 1.149999647319E+00 -5.604793570521E+00 -6.265503440702E+00 7.176921966820E-01 -1.965608705409E+00 -5.950068035839E-01 -4.038104708992E-01 6.815955801190E-01 -1.617299053278E+00 -1.244343321469E-01 3.927247152315E-01 3.964723680710E-01 5.674225922508E-01 -3.673113713551E-01 -1.182228086444E+00 3.140079288268E-02 1.094965062784E+00 -5.549617583959E-01 1.877822746113E+00 -2.053761560900E+00 8.583925422337E-01 4.495652212411E-01 1.969765937947E+01
 -1.157082043766E-02 -7.433870850438E-01 -1.027604583410E+00 -5.851155174229E-01 1.358374480884E-01 -5.378928485786E-01 -6.623686539201E-01 3.454087265617E-01 2.353639075365E+00 -9.571781948299E-01 4.765314844366E-01 -1.981728100855E-01 -4.486827031802E-01 3.536487442662E-01 -1.131355379703E+00 -1.590373866109E-01 9.605495246197E-01 8.306519508585E-01 -1.809587291748E+00 3.779482001519E+00 -8.452249036023E+00 1.213383822622E+00 -6.110587904845E+00 -6.564111803493E+00 -7.363660407968E-02 -1.151870192299E+00 -2.123548827045E-01 5.067542017619E-01 8.398207109957E-01 6.381471258188E-01 1.901466123800E-01 1.211626741526E+00 1.054373444204E+00 4.224965294626E-01 2.466396014096E-01 -2.609702129754E-01 1.453733083481E+00 -5.027239957785E-01 -1.093527225980E-02 -5.798380397587E-01 9.476411552571E-02 -1.220048683826E+00 1.883200164980E+00 2.857544458446E+00 1.850265842231E+01
 -7.336806686489E-01 -4.637458235127E-01 -3.304068732610E-01 -5.073578873339E-01 3.459180798271E-01 4.244742827846E-02 1.122637273303E+00 -4.139167924907E-02 4.249590904346E-01 9.035145986258E-01 4.814321057646E-02 -3.726970088160E-01 -6.777571230300E-01 1.471925683709E-01 8.751171161622E-01 -8.755153870199E-01 8.490605504295E-02 9.190778222921E-01 7.413845378195E-01 1.028314156782E+00 1.121632790792E+00 -1.578692164684E+00 -3.077016999321E+00 2.176136446160E+00 6.352105678144E-01 4.689176105695E-01 -3.444639686733E-01 -3.771359891842E+00 -1.315509989026E+00 -5.123656856221E+00 -7.156690495358E+00 -3.009569523136E-01 -1.809547758366E+00 -5.429172594595E-01 -9.378836697337E-01 -7.698297930804E-01 3.281860366253E-01 -9.485220513262E-03 4.792457177627E-02 1.431890493503E+00 8.361386021023E-01 -9.557381925391E-01 -1.594214681927E+00 -1.419625756953E-01 -6.928800621756E-02 1.951097393064E+01
 -1.815112540691E-01 -5.544686374765E-01 1.269404022722E-01 8.799745296842E-01 -2.805216256552E-01 8.873851925472E-02 -2.805267538465E-01 -6.742782887807E-01 3.635996293085E-01 -6.048930645913E-01 -5.219270121371E-01 2.921350384162E-01 8.340697497066E-02 5.933339399665E-01 -5.616359859631E-01 -5.794654929104E-01 -3.591172965486E-01 -3.249410513094E-01 -3.401861118015E-01 -6.151921857723E-01 -9.847884191080E-01 -1.990133926577E+00 -3.288015498686E+00 5.139703177109E+00 5.591145414039E-01 2.348045608102E-02 -1.560094162966E-01 -1.508498695916E+00 -5.437069523975E-01 -1.267974475619E+00 1.376866700161E-01 -1.064234137327E+00 -8.355529887266E-01 8.404175834501E-01 1.313836769480E+00 1.320429929948E-01 1.199898410775E+00 3.807354556896E-01 6.319212753577E-01 -1.058430522074E+00 9.507358559743E-01 6.333511325723E-01 -7.480107089940E-01 -6.740970958493E+00 1.786958958375E-01 -1.545796644286E+00 1.806741401350E+01
 7.889948239141E-01 -4.991740786666E-03 -1.083451692758E+00 -2.161366866200E-01 1.195790791759E-01 -7.737325060705E-01 3.039678434563E-01 4.211576069882E-01 -5.294682325987E-01 -4.343196048570E-01 5.496056696147E-01 7.129212619709E-01 -6.200861273791E-02 8.897857975835E-01 -1.815087873859E-01 -1.102763926261E-01 -5.617444144717E-01 2.363559913393E-01 -6.118051115374E-01 -8.925911807501E-02 1.164729270546E+00 2.543730135023E+00 4.355251739971E+00 -6.631368438444E+00 -8.616163456558E-01 -6.552827647324E-01 1.686804707696E+00 -4.430906281420E+00 -1.474455568205E+00 -9.120890115455E+00 -2.141749733615E-01 -1.492411343790E-01 -1.829598902746E+00 -4.443355998467E-01 -8.797780942015E-01 -7.885810290853E-01 -6.154812252186E-01 7.202654286565E-01 7.157788842399E-01 1.099962416254E+00 -1.421574497440E+00 -3.502415734559E-01 1.298589900351E-01 -7.334950244296E-01 -1.070124599395E+00 3.385076428942E+00 -2.163950266835E+00 2.215582658654E+01
 -2.592277035747E-01 -4.473771565893E-01 -2.078812935836E-01 1.934470655223E-01 -7.361990810931E-01 -2.603913357262E-01 -1.437275534956E+00 -4.507219387973E-01 2.707908778696E-02 3.233917800070E-02 4.999194667419E-01 6.922816599758E-01 -6.275601010142E-01 -6.056149367165E-02 -1.426387456605E+00 1.687985157635E+00 -1.872078030288E-01 1.727313026944E-01 -2.419675646685E-01 -5.960765373282E-01 4.682343744495E-01 -1.018680221103E-01 1.349203906106E+00 6.857416644834E-01 -3.803290271069E-01 -1.058973831293E+00 -3.787169038751E-01 1.172200299973E+00 9.914032092249E-01 5.542557357293E-01 -1.611112877516E+00 -1.077669178241E+00 -1.091077904512E+00 -1.062981132924E+00 -6.013270346650E-01 1.641679549621E-01 -3.267380492740E+00 2.202844297998E-01 -4.854639066076E+00 -5.431605327682E-01 3.721443526338E-01 -8.791910847865E-01 -4.731700745025E+00 -1.896749577386E+00 1.860524316776E+00 -3.917936324900E+00 2.956923004295E+00 2.923396640589E+00 1.548171851145E+01
 5.004692962160E-01 -1.100776257877E+00 -6.311212331872E-01 3.725910975720E-01 8.747412277986E-03 1.709210450170E+00 -2.012106329327E+00 -5.297703024507E-01 -9.787031738244E-01 1.356454445778E+00 -4.307185858885E-01 -6.605574996876E-01 5.776838249440E-01 -7.112412551784E-01 -1.483971096862E+00 -1.646549871262E-01 4.181283627149E-01 3.284328079340E+00 -1.124059123247E+00 5.562624780787E-01 -1.456898692331E+00 1.106102738940E-01 -3.062284934497E-02 6.276144348572E-01 6.327969648493E-01 -7.869141953728E-01 -7.510763968989E-01 5.264942280896E-03 -1.357959687992E+00 -1.434643975235E+00 -2.159458985502E+00 -4.441394778683E+00 -4.229106210080E+00 -1.211800496033E+00 1.134506304965E-01 5.077253244742E-01 4.499745252472E-02 4.427296015178E-01 -1.410079196953E+00 1.961080535602E-01 -6.984904309578E+00 4.089828315729E+00 -4.032350753417E+00 -1.766537359712E+00 -1.908416926396E-02 4.262581919167E+00 -5.100538049345E+00 -1.584758512356E+00 1.502558700306E+00 2.534057345361E+01
 -3.166164595546E-01 -8.076532407307E-01 1.974642296651E-01 -4.178295589830E-02 6.769706145629E-01 1.382146108723E+00 -5.501034506974E-01 2.088676192109E-01 -1.524044144876E-01 4.048782091215E-01 9.859723687958E-01 -3.065342959586E+00 -2.872819635868E-01 -1.598940238785E+00 1.285076073465E-01 3.442099330565E-01 -1.099043734720E+00 -5.697492630691E-02 7.949359475879E-01 -1.211913677495E+00 1.038946972694E+00 -1.266488618280E+00 1.140400893590E+00 1.847807344978E+00 -8.901901933371E-03 -6.638115646079E-01 7.125424199054E-01 1.156169506229E-01 4.690197391564E-01 1.486004074282E-01 -7.977123665707E-01 -2.618099159225E+00 -1.739602608099E+00 -1.605500501516E-01 8.970727690855E-01 3.120851413204E-01 -4.137964578374E+00 1.497259505263E+00 -3.545150953005E+00 1.820932281362E+00 2.448733055193E+00 -1.423209578869E+00 8.033894905042E-01 1.669654851311E+00 -2.344307026876E+00 1.663598248948E+00 -1.244692685027E+00 -1.540900184432E+00 -2.202746080569E+00 9.863982800929E-01 3.196061206042E+01
 -4.502331808277E+00 2.567295444776E+00 -4.453621073882E+00 -1.799112621511E+00 -1.222693776472E+00 -1.265011432699E+00 -6.880436410581E+00 -3.145522764027E+00 1.292459541241E+00 -3.383455844315E+00 3.871625745813E+00 3.568911916714E+00 -3.065988508408E+00 -3.651661726646E+00 -1.765646399671E+00 -9.651115426963E-01 2.310591553353E+00 1.146535898556E+00 -3.064629638738E+00 -1.462147612717E+00 -2.791156268227E+00 -5.103811036182E+00 9.027608122956E-01 -4.225427851149E+00 -2.726071080344E+00 2.637176070629E+00 2.890231796886E+00 -1.357042790160E-01 1.898023181246E+00 1.791322895789E+00 -8.783293143631E-01 1.447984288185E-01 6.976209406969E-01 -5.524474349886E+00 -3.188110028384E+00 2.777085907241E+00 -7.105486501212E-01 -9.211645248927E-01 -2.054479760434E-01 3.360621373580E-01 1.144916175098E+00 -1.041915983099E+00 1.930639726618E+00 -2.136193348291E-01 3.001610533752E-01 2.214908656513E-03 -8.034212618567E-01 -6.168482032025E-01 8.368835860199E-01 7.822407030523E-01 7.956952180088E-01 4.168620938712E+01
 3.276607850323E+00 -1.846542105657E+00 -5.134120675692E-01 3.102588083145E+00 -1.226623830471E+01 2.084826504020E+00 -4.576165325198E+00 -2.460648730632E+00 4.986964401899E-01 -2.810755904025E+00 5.484185780961E+00 2.321272718742E+00 -1.719091783637E+00 -6.534866108483E+00 -2.586540170011E+00 1.198424517982E+00 -1.570822719937E+00 1.465905219964E+00 -3.926884826443E+00 -4.160335196677E+00 -6.062611050177E+00 2.707283161063E+00 -4.752044871230E-01 -8.364293269512E-01 5.728910102304E+00 -6.700304169179E+00 -1.350099083859E+00 1.721525652381E+00 -8.487636390136E+00 1.131267306517E+00 -4.318718362699E+00 -1.394548555444E+00 -1.713102684997E+00 -1.986352089625E+00 -3.145156197885E+00 1.908380270360E+00 -3.850785645981E-01 1.690457477110E+00 -1.846726023225E+00 -2.136051332896E-01 1.833037426976E+00 8.870582801027E-01 -8.839057363604E-01 -9.660815406811E-01 -2.450119483009E-01 2.206720788448E-01 6.951949951572E-01 4.265728253819E-01 5.520643396766E+00 8.327811303173E+00 1.837712108070E+00 3.564716500481E+00 4.646877834220E+01
 -2.796991141643E+00 -2.756193816619E-01 -3.304049505372E+00 -2.235934563540E-01 2.250515106404E-01 -2.435303584607E+00 1.863918220102E+00 4.111555565540E-01 -4.245981878358E-01 3.175992592606E+00 1.880172532616E-01 -2.132855749035E+01 -1.579952450931E+00 -3.428720819720E+00 -3.929050360316E+00 2.207793418826E+00 -8.152086134809E-01 1.174265928509E+00 -3.831243434589E+00 -4.420377942571E+00 -2.494062302383E+00 -4.567672018315E+00 1.311291031244E-01 -4.353060493731E+00 9.074367409115E-01 -7.459217144385E-01 -2.132488466713E+00 -6.108450226115E-01 6.049431508359E+00 -2.803066010073E+00 -1.092225209036E+00 -1.090334107760E+00 4.335338327717E-02 3.684477735295E+00 1.869607349579E+00 1.690718591330E-02 5.222219602311E-01 5.306105430799E-01 2.384710145493E-01 -8.614497823613E-01 1.963896007277E-01 -3.292078470994E-01 -4.350628126976E-02 1.182720595529E+00 8.900521543332E-01 3.184740039566E-01 -1.374999610745E+00 7.216340872100E-01 -5.979994695536E-01 5.077000058651E-01 -2.255896478687E+00 -2.775495270158E+00 -8.083524049358E-03 6.478154478678E+01