#BIOSYM hessian 1
@Type: Hessian Update
@Units
 distance: 	A
 energy: 	Kcal/Mol
#header
@natom 19

#label
L1      L2      L3      L4      L5      L6      L7      L8      L9      L10     L11     L12     L13     L14     L15     L16     L17     L18     L19

#element
Li Li Li Li Li Li Li Li Li Li Li Li Li Li Li Li Li Li Li

#matrix
57
 2.290661547620E+00
 1.756914079338E-01 9.490661775296E+00
 2.551528278436E+00 2.182559307635E+00 1.057339873666E+01
 8.358669352665E-01 -6.750037398739E-01 1.628932812459E-01 9.038051661867E+00
 -7.934801685729E-01 -1.351923143618E+00 -1.486466389689E+00 -2.611251042479E+00 2.249221959581E+00
 8.921624857704E-01 -2.099762293334E+00 2.990729090405E-02 1.267607157414E+00 1.040225392289E+00 8.794126230956E+00
 3.571746356230E-01 -1.581644110194E-01 1.607707267300E+00 1.711459378540E-02 3.527640041884E-01 3.139190780683E+00 1.807161112824E+01
 1.177572230585E-01 -2.953856317091E-01 4.494810837896E-01 3.023500866279E+00 -1.535262402966E+00 -1.517096677717E+00 -7.301864830732E+00 8.627800910277E+00
 -2.733538555051E-01 -2.159433574249E-01 -4.100770580969E+00 2.349599377558E+00 -1.774712571803E+00 -6.749167193441E+00 3.542424933119E+00 -5.580292623144E-01 1.842761275733E+01
 -1.666913234800E-01 -2.610487948661E+00 -2.666606015959E+00 3.213631145498E-01 5.716311291204E-01 -2.283932182787E+00 1.238879556630E+00 -1.012497255933E+00 4.617041916446E+00 1.263184677373E+01
 -9.650674814365E-01 8.227240397130E-01 1.385591362765E+00 -1.630092778523E+00 6.289835629122E-01 1.286045495880E-02 -1.252593186629E+00 1.725194751733E+00 1.522210871504E-01 1.276247397769E-01 1.119970155591E+01
 -8.273351245936E-01 -5.219234974835E+00 -5.547112505850E+00 -1.262882950203E+00 1.301133171075E+00 1.007936261151E-01 -9.596697301402E-01 -5.237575099088E-01 1.445301061474E+00 4.179719716434E+00 1.294928326972E+00 9.240427247321E+00
 -3.081653945996E-01 -3.422787334255E+00 -2.058472860957E+00 -3.764316281639E+00 2.130101489919E+00 3.655035575956E+00 1.301093298937E+00 -1.362279170616E+00 -3.027959210455E+00 -6.501430548960E-01 -1.140257620875E+00 9.027782121499E-01 8.166760025746E+00
 -1.396418481800E+00 -2.637635314165E+00 -3.950007519061E+00 -1.642268601588E-01 4.327355848481E+00 3.167008204925E+00 -2.258923604299E+00 -3.644835817217E+00 -9.096886131092E-01 -4.764503265959E-01 -1.791842140771E-02 7.048069597063E-01 -5.514254857374E-01 4.290480714572E+01
 -8.458219292907E-01 -5.937745901245E-01 -3.657624363644E+00 4.102534661109E-02 6.827891568227E-01 -2.520447081100E+00 -1.668747682749E-01 -5.519306427757E-01 4.481360131907E+00 -1.493946515382E-01 -2.877911718864E+00 1.353201511674E+00 -8.970254079486E-01 6.502816059643E+00 5.820144479663E+00
 -8.575550717523E-01 1.415659731988E+00 7.994013582274E-01 -1.093323708231E+00 1.274950340745E-02 -2.746264926511E+00 -1.643279080193E+00 -2.000734304143E-01 -7.624507079958E-01 1.703846152737E+00 1.473691853799E+00 -4.601123624005E-01 -3.526536560287E+00 -6.894250494731E-01 -1.691777189642E+00 1.207399990969E+01
 -3.793829017978E-01 -6.827603089609E+00 -1.641747920543E+00 -3.777652205577E-01 2.024383610313E+00 1.665844993626E+00 3.640764507940E+00 -1.359006788053E+00 -2.808115085852E-02 -1.913396078386E-01 -1.605248066280E+00 2.183411527047E+00 3.674708053959E+00 4.101310670880E+00 1.075892287665E+00 1.110730668212E+00 2.518686415893E+01
 6.274132247639E-01 7.203035611493E-01 1.615096524263E+00 1.311120282284E+00 -2.206928410637E-02 1.779798507840E+00 1.196249364262E+00 7.074536487925E-02 -3.343230565119E+00 5.870668848363E-01 6.515368074267E-01 3.196739578243E-01 -2.659000310002E+00 5.131427521431E+00 -1.262274192832E+00 5.217620962455E+00 5.330439812480E-01 7.178123539409E+00
 -1.050301504518E+00 2.624779201678E+00 3.396820489868E-01 -3.265967968629E+00 4.832179051731E-01 -2.720529193015E+00 5.047428422956E-01 -1.296245064892E+00 1.316545940889E+00 -2.625229760993E+00 -6.400051333494E-01 -1.001586356459E+00 -1.382340180218E+00 -1.310052140444E-01 2.935620835991E+00 1.937699843917E+00 -1.429993338897E+00 1.390387597310E-01 8.233172996195E+00
 4.355873718794E-01 -1.891734602750E+00 1.413363898427E+00 6.012493878645E-01 -9.262014370091E-01 -4.686870141121E-01 2.338126625522E-01 1.063089926662E+00 7.930300793605E-01 2.091935656456E-01 1.678320971598E+00 1.797226753485E+00 -7.826057622418E-01 -4.966704659563E+00 -1.473582454167E+00 7.981309370741E-01 -1.717274345862E+00 4.188982569282E-01 -6.865072069091E-01 3.499441243001E+00
 -6.393442227403E-01 1.025160314025E+00 -5.653833390693E-01 -3.725054269344E+00 9.452158739894E-01 -2.005934493453E+00 9.321721052731E-03 -9.996751583366E-01 -3.863052901375E+00 2.387905743593E+00 -1.695551109490E+00 1.000728992046E+00 2.254840044664E+00 -4.733153078832E+00 -5.037901845645E-01 -1.703551544852E+00 -5.969395501533E-01 -1.919171378386E+00 -1.828505528291E+00 -1.291493979936E+00 9.217276566157E+00
 -1.414239262595E+00 9.825717220861E-01 -1.086626302427E+00 -4.898846202645E+00 2.230214963894E+00 3.964826804491E-01 -4.247793038568E+00 -1.679019122608E+00 -5.081773452347E+00 -8.415581239256E+00 -3.491983187434E+00 -3.603541031055E+00 3.586996029616E+00 1.251398473199E+01 2.601146285740E+00 -1.218606293943E-01 7.630642633395E-01 -1.339718296671E+00 2.301232305912E+00 -3.105583439446E+00 1.421981577437E+00 1.662055465546E+01
 6.707954068887E-01 2.114926958924E+00 -8.850165927191E-01 -2.252106204816E+00 -1.459036539065E+00 -8.493788313959E-01 1.528532914377E+00 4.497873960479E-01 -2.043201030952E+00 -2.721293035347E+00 -3.876637138261E+00 5.436341017384E-01 3.663515620024E+00 -2.973056836776E+01 -1.648840303782E+00 -2.790226014867E+00 -6.020779061475E-01 -5.606227894635E+00 2.356621711516E+00 1.982912951043E+00 4.737792415484E+00 -4.470246499113E+00 3.009834179108E+01
 -4.907971520144E-01 3.390216543008E+00 2.784520044514E+00 1.115107468987E+00 2.325442545617E-01 2.700677216500E+00 -4.352544336893E+00 2.457739980456E+00 -1.112312918570E+01 -6.407029292544E+00 -2.399444554374E+00 -5.927306783265E+00 1.536526108428E-02 4.205254636491E+00 -1.066301326981E+00 1.287604461320E+00 -1.496664716938E+00 2.083632424132E+00 5.375541883876E-01 -2.253722573927E+00 8.516490151487E-01 7.262357892811E+00 -3.481680310909E-01 1.291542785333E+01
 4.435571397973E-02 1.243286078421E+00 -1.316184510215E+00 -1.786857151022E+00 1.315630073031E-01 6.467714225912E-01 -1.316066793152E+01 2.068865954476E+00 -4.783070115583E+00 4.198960957651E-01 8.954229159130E-01 8.374083252968E-01 4.443337134434E-01 -2.801189951133E+00 -1.606929303611E+00 9.307516256003E-01 -2.716772055224E+00 -2.333011319698E+00 1.305093796259E+00 -2.474069099055E+00 4.201803576010E-01 1.309709701128E+00 1.598595451386E+00 1.955420137210E+00 2.162270120367E+01
 -8.433083557829E-02 -3.072078359549E-01 -8.498533647325E-03 1.454944832299E-01 -4.458041326593E-01 -1.993869114978E-01 2.388283478873E+00 -5.088335733492E-01 9.152068816500E-01 1.087245454443E+00 2.906565305873E-01 7.820623404647E-01 -1.395552406149E-02 -5.839520802411E+00 -1.042521454155E+00 1.072637163335E+00 4.190130524645E-01 1.067865638563E-01 1.098653145654E-01 8.982065993233E-01 3.741463929825E-01 -2.933178653242E+00 3.318695014839E+00 -1.732016057063E+00 -9.146285453868E-01 1.617551114160E+00
 -1.006646608561E-01 3.983898274860E-01 -9.409370119905E-01 -8.434309873329E-01 3.873658621233E-01 -8.482321009425E-02 -5.403272922855E+00 -2.235879081168E-02 -1.362519276421E+00 5.102410619080E-01 3.420344411039E-01 5.638246301750E-01 1.395230445584E-01 8.397161771102E-01 -2.013847269450E-01 2.137619314595E-01 -4.523025417996E-02 -1.191597154059E+00 3.243621012835E-01 -1.369109928999E+00 2.437622990136E-01 1.411513492147E+00 -4.501663352165E-01 7.104420336619E-02 8.418879336541E+00 -5.417695254726E-01 4.249615491342E+00
 9.897108727193E-02 -1.243828281217E+00 1.702122592611E+00 -3.164038041757E-01 -4.992353298924E-01 6.814219733366E-01 -2.373945231568E+00 3.909395192376E+00 -2.390712689544E+00 -2.835846457510E+00 2.782312645297E+00 1.581086379223E+00 -2.476327560810E-01 -2.337372418778E+00 -1.466189659812E+00 -3.778064599382E-01 7.092947139228E-02 1.063736873929E+00 8.364500917932E-01 1.666529958594E+00 -8.564795440164E-01 -1.071379861883E+00 -8.090875572250E-01 5.761646770354E-01 8.694614146478E-01 3.451536098951E-01 -7.413487845203E-01 6.925668884313E+00
 -2.885256580645E-01 1.986160346763E+00 -4.048139466759E-01 -6.516647444640E-01 3.560986784139E-01 -2.455053327362E-01 3.209809389854E+00 -5.268989628608E+00 1.293459009638E-01 -6.338430690617E-03 -1.122865647362E+00 -6.513899333366E-01 -1.072623938004E+00 2.906851781677E-01 3.267300234295E-01 1.597590200872E+00 -7.950818561074E-01 -1.882481974639E-01 -1.088860473679E-01 -4.627712847327E-01 1.092129854130E+00 1.602723036617E+00 2.137903321744E+00 -2.722084915606E-01 -1.067437584777E+00 8.434203058365E-02 5.502382888930E-01 -5.269083787418E+00 6.850747384694E+00
 -4.242733417169E-01 -1.886981133590E+00 -2.140505687245E-01 8.897406533146E-02 2.641445776729E-01 1.512754543652E-02 1.510806705741E-01 1.557753117733E+00 7.564299509480E-02 2.852823006619E+00 -2.572327861530E+00 -2.330644491629E+00 4.281737881858E+00 -3.543446403890E+00 -1.619452822797E+00 1.921098468036E-01 2.475685604245E+00 -1.416636098676E+00 3.931364241229E-01 -8.594360533643E-01 2.140602505958E-01 -6.167012048964E-01 1.776436400214E+00 1.315962973211E+00 6.183151880165E-01 8.428093993847E-01 -1.115970006259E-01 5.238965759006E-01 -3.907313932736E+00 1.145101473094E+01
 -7.127994232768E-01 1.594064543707E+00 -3.375290717556E-01 3.979094140613E+00 -1.491602837231E+00 -1.712700464738E+00 1.052212940556E+00 1.277396448405E+00 2.752456824654E+00 -5.971984739676E+00 3.992627400053E+00 1.428731148657E+00 -2.167310260781E+00 -5.451085616880E+00 1.864305435126E-02 -4.962904965148E+00 -3.639502808915E+00 -2.481273381908E+00 -1.594010426793E+00 5.351253267790E-01 1.935311118573E+00 -1.029863796731E+00 2.360129123825E+00 -1.329081041521E+00 -1.732048323230E+00 1.106068018228E+00 -3.834236691007E-01 2.802630229259E+00 3.919027840827E-01 -3.235612077692E+00 2.404616781105E+01
 4.315530649350E-01 -4.185304098205E+00 -1.056895748106E+00 5.515025187375E+00 -2.551510199613E+00 -1.624314837987E+00 1.304511866239E+00 -4.291675430883E-01 1.855350284725E+00 4.701175281139E+00 -8.287713482671E+00 3.851128692554E+00 -4.784167530599E+00 -3.728546758485E+00 2.534004440256E+00 -2.245216204157E+00 -2.110440679694E+00 -5.898923249140E-01 -2.007691922968E+00 1.209294132440E+00 3.006500603050E+00 -4.920108897431E+00 5.212133683275E-02 -2.153732689664E+00 3.748712199100E-02 1.042582218890E+00 -6.984886094613E-01 5.874430101591E-01 6.131077550487E-02 -2.866553902614E+00 3.992623510631E-01 2.408084924223E+01
 -1.967271590894E+00 -5.436728461861E-01 -2.383445106041E+00 -4.172359548961E-02 1.904980814277E-01 1.454641759000E+00 6.022408938883E-01 9.532229539259E-01 3.384670805398E-01 -1.491602927750E+00 3.003049482474E+00 -3.486274695569E-01 1.793904271113E+00 -2.296311751616E+00 -1.367550977558E-01 -5.857589658472E+00 -2.141532623548E+00 -5.351712221147E+00 -1.920375241146E+00 -1.253251645997E-01 1.531193457279E+00 8.232206409647E-01 1.790471005647E+00 -9.436724801664E-02 3.380826051010E-01 -1.814265988915E-01 -1.356910199240E-01 4.341515210001E-01 -1.741057016667E-01 -1.469542928958E+00 2.930259774998E+00 1.669122375858E+00 1.059231226454E+01
 4.593550769424E-02 6.980363839675E-01 1.159967527219E+00 7.811630988347E-01 -1.238717868360E-01 -1.439626380244E+00 -1.157109316999E+00 1.153570113288E+00 -2.566127605526E-01 2.423584832711E+00 5.805773114620E-01 -3.742369051383E-02 -2.020718910070E+00 -8.283293357705E-01 1.230598664040E-01 2.057006356581E-01 -1.926337981431E-01 3.010781781445E-02 1.400193599735E-01 -1.081003870679E-01 5.246370340207E-01 -2.992499477291E+00 2.351037775166E-01 3.939845289998E-01 4.912667506761E-01 -8.266127977708E-02 2.132127037939E-01 1.376953145766E-01 -6.883590398278E-01 2.254552470410E-01 -1.075407736493E+00 1.421037163203E+00 -4.382209955438E-01 2.869013597522E+00
 2.748169826379E+00 -4.341816366877E+00 7.160395249995E+00 -1.966595277444E-01 -1.089803144956E-01 -2.530774699038E-01 -5.224023674997E+00 2.278680977724E+00 2.663521116398E-01 -1.875371086753E+00 1.965797074386E-01 -3.046145538196E+00 2.175862680066E+00 -2.364970154438E+00 -1.231979790309E-01 -2.507844885615E+00 -1.401145393199E+01 -3.186131835693E+00 2.357097573979E+00 2.543615916144E+00 -3.965952485672E+00 2.708425055654E+00 -6.916270823195E-01 -5.876001183789E-01 5.100239551352E+00 -1.016416232984E+00 1.688646300210E+00 3.257721176687E-01 -1.964496424731E+00 3.397672407072E+00 2.199157367450E+00 -2.117945956510E+00 -1.983868613114E+00 -8.995045393404E-01 3.901954648906E+01
 3.283892204878E-01 7.515083107719E+00 -1.172197878603E+00 -1.445412575993E+00 -1.255453384208E+00 1.555410238743E+00 2.565203703426E+00 -3.396017524284E+00 -2.208831192359E+00 6.523218247051E-01 7.150744936252E-01 2.238633900075E-01 -2.127771070467E+00 -2.199505218608E+00 -3.280475258068E+00 6.875665411150E-01 -3.419219333078E+00 1.908872067465E+00 -3.346671324833E+00 -2.731693024426E-01 3.484300966376E+00 -1.826886198600E+00 2.146154345742E+00 2.498432387198E-01 -9.447344628618E-01 3.171806208682E-01 -4.631541755352E-01 -1.191331255979E+00 3.792869819381E+00 -5.863486432964E+00 -2.285562843435E+00 8.788647775157E-01 1.575138205620E+00 4.216551134385E-02 -1.988587626454E+01 2.141670693556E+01
 6.082579356511E-01 6.084144494380E-01 4.855431553018E-01 7.280587486253E-01 -9.899004197647E-01 3.343752644125E-01 -1.252877509826E+00 1.605784679572E+00 8.565640121244E-01 -1.034789069590E+00 9.075134367261E-01 4.696013711939E-01 -3.910795618174E-01 -1.110206477058E+00 -1.198694054014E-01 -1.302146604142E+00 -1.760787342185E+00 1.403980921349E+00 6.904241926349E-01 1.397284971670E+00 -1.656108626577E+00 -1.279270003093E+00 4.337106175379E-01 -1.308405008836E+00 5.429777546910E-01 -1.342118429650E-01 1.791889278395E-01 5.090979360251E-01 -3.975724434121E-01 -1.314933040521E+00 6.158326501768E-01 -2.202610495195E+00 -1.297147881493E+00 -1.339896066720E+00 1.858727115443E+00 -6.889237388776E-03 6.068775892504E+00
 1.023852797057E+00 9.242306514619E-01 3.184793067375E+00 -1.423097358911E+00 -2.451972357488E-01 -4.068167775847E-01 2.223831725055E-01 1.396347500186E-01 1.316354766932E+00 -2.888946157289E-02 2.421421359151E+00 -1.293067265851E+00 8.273941154391E-01 2.812023035133E+00 -4.100555232887E-01 -3.716405845388E+00 -1.345158380358E+00 3.533941424249E-02 -3.188888468872E-01 3.083995432239E-01 5.854091646584E-01 2.591458733064E-01 -4.035924430581E+00 -2.370519845285E+00 -5.066729468713E-02 -9.309930493709E-01 4.625353709418E-01 -4.440204045898E-01 -5.823070760621E-02 -1.318007535351E+00 1.039940788202E+00 -4.091214798672E+00 -1.066115196046E-01 -1.181307552452E+00 4.390544556022E+00 -7.558475383723E-01 5.810611739968E+00 1.012725711059E+01
 -1.213593061834E+00 -1.060670982174E+00 -2.694092024400E+00 1.546522207136E+00 -9.126826253197E-01 -1.119386451686E+00 -3.667245563943E+00 3.257648406378E+00 1.827931317667E+00 5.906957579195E-01 1.712904904958E+00 2.040690607585E+00 -2.740710806843E-01 -4.841874059048E+00 1.085487699454E-01 7.410237815521E-01 -2.063540149729E+00 5.496712670877E-01 3.793705880931E-01 1.621227509395E+00 -7.072865080424E-01 -1.956765115638E+00 2.105422924900E+00 -1.849348890229E+00 3.169007694965E+00 6.996252690519E-01 1.144129509644E+00 6.508194990724E-03 -1.604900418365E-01 -3.204791146120E-01 2.781150712846E+00 -7.549348629471E-01 3.873929762159E-01 -1.731975437075E+00 2.975293583448E+00 -3.571467016721E+00 5.962777197693E+00 4.589678053089E+00 1.069805604671E+01
 -5.475071493733E-01 7.300977051161E-01 1.770257038672E+00 1.078476773776E+00 2.274149136529E-01 1.616510174637E-01 -1.498122731021E-01 -5.526065008589E-01 -2.144985862999E+00 2.199659071420E+00 -7.068945270204E-01 -2.609050902715E+00 -3.064210339560E+00 3.192495704685E+00 2.281360660984E+00 -3.268570931126E+00 -1.508403427554E+00 -2.203033850996E+00 1.178825291578E+00 2.621086476494E-01 -1.137983650392E+00 -1.412434039616E+00 1.311873130431E+00 3.166283100666E+00 -1.465789221973E+00 -1.805690521128E+00 -2.030891668883E-01 -4.139953263601E+00 3.166035706571E+00 -3.892659079864E+00 -1.139784865415E+01 4.790092225431E+00 5.848996585911E+00 3.374385829751E+00 -2.060115804560E+00 2.235190369433E+00 -3.914169035574E-01 1.475833549317E-01 -1.946037018278E+00 2.366420369505E+01
 1.332114302049E-01 -1.938594760620E+00 2.869528616744E+00 -2.521952884293E+00 -3.488940901017E-01 9.469150041667E-01 2.182952389664E+00 -1.745955696658E+00 -1.400845421837E+00 2.648708123660E+00 1.486416914720E+00 5.033731953305E-01 3.902026652194E+00 -8.684578513757E+00 -5.497362798448E+00 -4.390092471748E-01 2.121624457698E+00 -1.992867475622E+00 -8.937322182289E-01 1.920240012534E+00 1.070138243184E+00 -3.805902819936E+00 2.357561622659E+00 -2.693120248931E+00 2.636760965475E+00 2.101294713719E+00 7.480018509479E-01 2.762668240924E+00 -2.435015722589E+00 7.536906321875E+00 -8.926863461941E-01 -9.948329675063E-01 2.814588258066E-01 -2.914639510436E-01 -8.964141412154E-01 1.930000176849E+00 -4.516282833794E-01 8.613514610599E-01 -1.222173514707E+00 -4.327722384069E+00 1.612431738385E+01
 5.900912674747E-01 1.718701151572E+00 -1.497964439979E+00 -7.071435291327E-01 -1.932074800282E-01 -1.242008197266E+00 -1.458187207160E+00 2.986679469739E-01 1.536741829861E+00 3.052530008857E-01 7.911154997944E-02 9.824741484991E-01 -9.371353619372E-01 -1.838944502191E+00 4.700074748003E-01 3.042810130769E+00 -1.216238810783E+00 1.450169351066E+00 -7.083519483897E-01 -7.850095423263E-01 1.421029857723E+00 3.558949395866E-01 1.098465753244E+00 -1.822647021013E+00 2.176332388499E+00 1.576792292477E-01 9.812987865936E-01 -1.630804476445E+00 2.013727285543E+00 -3.897197482874E+00 1.588553915918E+00 -1.067541116074E+00 -2.382677911500E+00 -1.035456783679E+00 3.685832892871E-01 1.263118448410E+00 1.258927555668E+00 9.432716958476E-01 2.938298926094E+00 -5.028958757098E+00 -5.605563539585E+00 7.417646939074E+00
 -1.927440689780E-01 -1.198475536265E-01 -1.751109390627E+00 8.851996799386E-02 -5.290387475125E-02 3.104311463728E-01 2.841803159598E-01 3.488790517888E-01 8.150106901188E-01 5.238219299728E-01 -4.075167785508E-01 9.929939256349E-01 2.242915048617E-01 -1.250743836428E+00 1.685628133095E-01 1.153918026057E+00 -1.475283899743E-01 6.213009247627E-01 -1.620756977437E-01 -1.625985541575E-01 8.400059970108E-02 -5.211673302627E-01 5.986178140721E-01 -8.077358578589E-01 1.930378227582E-01 4.787440583165E-01 -2.152654344985E-01 2.309666502456E-01 -4.721593192672E-01 -4.886008056707E-02 -1.305409481074E-01 7.357945124902E-01 -2.997069063757E-01 -4.905443537930E-01 -1.226828955414E+00 5.160600138654E-01 -2.531300084499E-01 -1.321315672895E+00 5.964484016005E-01 -2.534259565916E+00 -1.066512211012E+00 1.648964913979E+00 1.401036339103E+00
 -2.434628202096E-01 1.240334067109E+00 -2.966536033399E+00 -1.693736034296E+00 6.119895436309E-01 -5.136032994098E-01 -2.335456902659E+00 1.664654754997E+00 1.423032297698E+00 -2.568265221892E-01 -6.471758855805E-01 -7.929269608433E-02 7.171951134342E-01 2.473974381163E+00 2.027308501184E+00 1.569868676080E+00 -2.068656060162E+00 5.842725874719E-01 6.903426170555E-01 -1.926248726865E+00 7.996510812411E-01 3.257958043494E+00 -1.298030359928E+00 -7.715764713469E-02 2.013726202662E+00 -8.084971346217E-01 4.553700952017E-01 -3.146850567267E-01 -8.670119073206E-01 -1.411782016458E+00 -2.051697088602E+00 -1.530857329079E+00 -1.938032831572E-01 -1.043507156234E+00 1.658594479824E+00 -9.212326412095E-01 -3.727432947677E-02 -2.684557063470E-01 1.261624982936E+00 -3.237930323040E+00 -6.523508421502E+00 5.206006177793E+00 2.157681912740E+00 7.606945721566E+00
 -5.001405839866E-01 5.667033785954E-01 1.391608428755E+00 2.512302516108E-01 -1.503256447675E-01 -6.831149612045E-01 1.025819604480E+00 -1.681827488234E+00 -1.754768540640E-01 -3.102866988461E-01 1.114309532340E-01 -9.935841212720E-01 -6.834086567389E-01 1.119229328019E-01 -4.032792417775E-01 -9.649614688152E-01 7.305619734506E-01 -1.581147278477E+00 7.945475451717E-01 3.651151050508E-01 -4.087216657335E-01 -3.769615630215E-01 2.894905846829E-02 7.852257404204E-01 -6.975399508085E-01 6.287191752665E-02 9.751621676209E-02 -1.868675629411E-01 7.157451245413E-01 1.538997024140E+00 6.491274340041E-01 4.627467684525E-01 9.558465818962E-01 9.503634926425E-01 -2.122599179697E+00 1.225324087506E+00 -1.261676641537E+00 -8.593209358546E-01 -2.610936105462E+00 3.270828303080E+00 4.427315715603E+00 -4.488821830658E+00 -1.400073081502E+00 -4.504992264540E+00 4.432638117246E+00
 1.194050020342E-01 -7.141676733358E-01 -5.666870055615E-01 -3.795815412525E-01 6.646416651861E-01 -8.056515585231E-01 7.200868747744E-01 8.184230838075E-01 5.115428379511E-01 -6.498941321289E-01 -6.505868351028E-01 1.824610582001E-01 5.326053732471E-01 4.630928498657E+00 1.432623056048E+00 1.349826153548E-01 6.809895368525E-02 1.024301810223E+00 -6.221811144783E-01 7.179071045855E-01 -1.018168327479E-01 2.231797665430E+00 -1.166713121009E+00 1.067311955250E+00 -7.308818046285E+00 -8.158076046118E-01 -2.833082651600E+00 -1.963184596726E-01 -4.353532309914E-01 -1.745930529361E-01 -1.302881798820E+00 -2.351043586172E+00 -1.281367164259E+00 1.758467759979E-01 -1.895562722399E-01 -3.379262677074E-01 -7.043138275989E-01 -9.849237441236E-01 -1.999817078764E+00 6.971720990131E-01 -3.210978975308E+00 -3.149605213424E-01 -1.491714903961E-01 6.144488902230E-01 -5.643154505163E-01 5.122384207444E+00
 1.218907094304E-02 1.634156990631E-01 -1.189936319552E-02 5.063687186590E-01 -5.438077231735E-01 1.150027774017E-01 -1.053904097213E-01 3.376591086624E-01 5.789062435799E-01 -1.573109854587E+00 -3.748130011693E-01 -2.280613968422E-01 -5.362838853685E-01 -2.344801741342E-01 4.485681971235E-01 -3.397282318552E-01 -8.266086271820E-01 2.608767275266E-01 1.030575298072E+00 3.637910600393E-01 -1.169430507781E+00 5.443090281057E-01 1.463867109785E-01 -8.467661896984E-03 3.087469692289E-01 1.116910168737E-02 -3.600034688106E-02 4.440326507761E-01 -2.407811666102E-02 -9.186468748736E-01 5.857674284614E-01 6.955400072200E-01 2.488084082797E-01 -7.238138827135E-01 8.147808425460E-01 -4.320724854317E-01 1.491647806466E+00 9.944668555376E-01 1.797787607961E+00 5.133126664749E-02 -6.274133094507E-01 3.104036575451E-01 -1.111184624430E-01 -2.424137141952E-02 -5.288722805649E-01 -3.937225596666E-01 1.165051533333E+00
 2.820655952173E-01 -6.451439121287E-01 3.973187451356E-01 -2.994808588338E-01 1.030485514624E-01 -1.742747435855E-01 2.622074697174E-01 3.928667446992E-01 7.698773876054E-02 -4.054456364228E-01 3.458222554866E-01 4.807816361149E-01 1.224089344231E-01 1.272321977714E+00 7.668416110029E-03 1.813786201437E-01 1.131403172222E-01 7.490504894681E-01 -3.861739295758E-01 1.015489462129E+00 -5.268898152371E-01 3.182637896113E-01 -3.719141561390E-01 -1.402034236012E-01 -3.010084132212E+00 -2.130437939504E-01 -1.228933020885E+00 3.331903795653E-01 -2.219199084089E-01 -5.483497835080E-01 -7.660820936781E-01 -1.219287055156E+00 -7.370865069392E-01 -6.554876632210E-02 1.336130709481E-01 2.853906183815E-01 4.822153246466E-01 3.961218308876E-01 -3.518688963999E-01 3.626360649546E-01 -5.108934712625E-01 -2.835997000373E-01 -2.880128927267E-01 -4.747588105795E-01 -1.654235281870E-01 1.959812329816E+00 9.879725367967E-02 1.273076851220E+00
 1.285229254265E-01 -1.051837353258E+00 2.842864336138E-01 -1.960004273693E+00 1.075235204937E+00 -4.935551857827E-01 7.239345723732E-01 -1.091410686214E+00 6.530862008769E-01 -4.992991680723E-01 5.017893973067E-02 -4.404654862720E-01 1.496285205888E+00 8.797354315813E-01 3.274711527219E-01 3.623052498865E-01 2.715988942588E+00 -1.626795196059E+00 3.455910377114E-01 -6.546933749644E-01 1.563732454899E-01 1.963007634115E+00 5.187819933524E-01 -3.958658365982E-01 -8.070288262378E-01 -1.441695141259E-01 -1.181600788568E-01 -8.705329788598E-02 -1.934642878984E-01 1.270834960818E+00 -7.892932725378E-01 -2.017809892157E+00 1.068929772968E-01 1.986681064186E-01 1.577063368536E+00 -2.049729286010E+00 -3.346027534588E+00 -2.594296779625E+00 -4.135752295746E+00 -8.557970608404E-01 3.628013182949E-01 -6.283951904438E-01 -3.320427921042E-02 4.423984098310E-01 5.258104804194E-01 1.173714421038E+00 -9.784915347940E-01 1.898015357344E-01 3.540667404321E+00
 3.488432321080E-03 4.067254088352E+00 -2.398497324363E+00 2.617054800520E-01 2.321793833483E-01 4.159263664856E-01 1.068420643883E+00 -2.020110719447E+00 -9.602505535320E-01 3.857825975300E-01 -2.896399221536E+00 -1.480217164949E+00 -9.692516582778E-01 2.773872112465E+00 2.972820292290E-01 1.484909699724E+00 5.225494178727E-01 -1.314295741138E-03 -1.488696244702E+00 -2.781876540820E+00 1.687409589317E+00 1.578750502799E+00 9.087989500230E-01 3.256415167680E+00 -1.331839444281E+00 -4.370848789560E-01 -4.768517162230E-01 -1.721383602604E+00 1.415321027825E+00 -4.306419132966E-02 -2.376838435475E+00 9.800535641500E-01 -9.134823799554E-02 1.637799617084E+00 -1.138460186405E+01 9.049450711820E+00 -6.071714072427E+00 -7.572634330960E+00 -8.483377997432E+00 8.382287133086E-01 -1.646925856727E+00 -4.092301095711E-01 8.220061388735E-01 9.402656710299E-01 1.410859042016E+00 1.972441266224E+00 -1.848867082414E+00 -1.740146091901E-01 2.781864465297E+00 1.282182932743E+01
 8.157976532068E-01 -1.401564434414E+00 1.856522217655E+00 -2.183349900861E+00 9.771575882170E-01 -4.076224039900E-01 9.516845591291E-01 -9.327550216402E-01 -9.398413824250E-02 -1.202726151941E-01 3.289470012161E-01 -5.033117233314E-01 1.010175543501E+00 2.522689679604E-01 -2.587925718092E-01 6.905993208270E-01 2.153614792952E+00 -1.509967873884E+00 -4.018950736844E-01 6.092594347410E-02 1.951203180436E-01 1.258457364099E+00 5.560038696254E-01 -2.914778576048E-01 -2.073135526771E+00 -1.801048598678E-01 -8.153129850104E-01 4.394230422217E-01 -4.409949306462E-01 3.990973616284E-01 -2.421561718438E+00 -9.035802893923E-01 1.209663047985E-01 1.205722020740E+00 2.393208611149E+00 -1.229464614826E+00 -4.677104050009E+00 -3.829107801759E+00 -6.522970428306E+00 7.486896721397E-01 1.939566223423E-01 -9.769653025080E-01 -1.359497353360E-01 2.428447714076E-01 6.077776386715E-01 2.163145749747E+00 -1.394175379289E+00 5.498187505769E-01 4.233613878815E+00 4.209504474904E+00 6.596950371935E+00
 3.528920147255E-01 9.211506112250E-01 -1.193012227578E+00 1.192131282815E-02 -2.347572648502E-01 5.417171733668E-01 7.033724744248E-01 -9.169152989968E-01 5.909023313396E-01 7.254110672648E-01 -1.672581654541E+00 -7.287856484515E-01 1.216840994371E+00 7.282761216192E-02 -6.656163550963E-01 -6.083818102813E-01 1.046384041870E+00 -2.319871605092E-01 -1.882673458752E+00 -9.071617058246E-01 1.062888759580E+00 5.517328602691E-01 6.901419598852E-01 -2.702199175826E-02 -5.360776644727E-01 7.891349216559E-03 -1.208636637067E-02 -1.470804804471E+00 6.979458698098E-01 1.105197353481E+00 -9.634595326286E-01 -6.467813135207E-01 -1.217738264190E-01 -4.837051261614E-01 -4.029942143413E+00 3.612890796030E+00 -2.109156847633E-01 6.094485429732E-02 -8.392091269638E-01 -1.259985544843E+00 9.599791796759E-01 4.546680227774E-01 1.811694964626E-01 1.855009991303E-01 -9.401442144303E-02 3.305192683095E-01 -2.227455995892E-01 7.799912402977E-02 -2.780678691403E-02 2.458833013958E+00 -2.139220313305E-01 2.234798781797E+00
 -7.858698234304E-01 1.587985923968E+00 -9.443462371721E-01 3.062675671068E+00 1.834015814499E-01 7.087562812996E-01 1.890062652074E+00 -4.762147609105E-02 -3.244771124864E-01 1.604579077700E+00 -1.868132115920E-01 -1.349140197591E+00 -1.888554412369E+00 6.001938116475E+00 8.726985192109E-01 1.102403698530E+00 5.463688306859E-02 2.223472745645E+00 -1.064558936055E+00 -1.756030212265E+00 -1.830297486193E-01 -6.929684726170E-01 -5.403455133406E+00 2.368158165817E+00 -2.885297776080E+00 -4.389464970240E-01 -8.370459927034E-01 -1.444428141391E+00 4.185940183737E-01 4.645843751570E-01 8.638416852807E-01 2.827803276752E-01 -5.939118674920E-01 9.374887509062E-01 -4.261028181557E+00 8.365550871714E-01 -1.192044715800E+00 -1.345673420109E+00 -9.736212353263E-01 6.632827918856E-01 -2.939702819283E+00 -7.940679425179E-02 3.259353752864E-01 4.782084911026E-01 1.629260719359E-01 7.988691970936E-01 -6.961161171027E-01 -4.072749146715E-01 -5.784677652514E-01 2.963570738294E+00 -9.164724377145E-01 3.136535205258E-01 4.936583580063E+00
 9.772940124768E-01 -1.283977277017E+00 1.062322847280E+00 1.473651459467E-01 -9.187389872274E-01 -1.338988157800E+00 -1.653416620083E-01 3.616318369567E-01 4.402274159092E+00 -4.569222759655E-01 3.002280110286E-02 -1.311609682713E-01 -5.707994761916E-02 -2.790888007271E+00 -1.577465578849E-04 5.458959476121E-01 5.784497790955E-01 -5.674430129295E-01 1.308233749729E+00 1.742012785115E+00 -3.367849925471E+00 -1.241112391961E+00 1.220249499224E+00 -3.343006669391E+00 -2.457942379226E-01 3.560282699868E-01 -2.025748998799E-01 3.064341368546E-01 -6.094618010695E-01 9.808004750745E-01 -1.134213461974E+00 -1.471624116825E+00 -1.602853015517E+00 -7.704158569712E-01 4.930553505198E+00 -3.043865711932E+00 1.881502890115E+00 1.525289560847E+00 1.606078777291E+00 -1.211363032836E+00 1.510588552181E+00 4.764703128742E-02 -1.840743050803E-01 -4.995238412096E-01 -1.653833464299E-01 1.704179665328E-04 8.311826551270E-01 6.237252305136E-01 2.078741618934E-01 -3.180258386942E+00 1.167713846062E-01 -1.538564003405E-01 -2.432908157823E+00 3.862664411049E+00