#BIOSYM hessian 1
@Type: Hessian Update
@Units
 distance: 	A
 energy: 	Kcal/Mol
#header
@natom 19

#label
L1      L2      L3      L4      L5      L6      L7      L8      L9      L10     L11     L12     L13     L14     L15     L16     L17     L18     L19

#element
Li Li Li Li Li Li Li Li Li Li Li Li Li Li Li Li Li Li Li

#matrix
57
 1.767713953425E+01
 1.317659767371E+01 2.924266636805E+01
 -1.685932226264E+00 -4.182099721325E+00 1.283932341528E+01
 5.474138029686E-01 -3.401727360548E+00 1.934629072546E+00 1.419830018296E+01
 -2.231057010323E+00 -2.097022651887E+01 4.130665907214E+00 -3.571684804553E+00 2.653092259257E+01
 2.082578179713E+00 2.528345991280E+00 1.422471696453E+00 8.855875164774E+00 -6.252321969781E+00 4.184293960186E+01
 7.377858107613E-01 -2.076258343945E-01 9.579474007979E-01 -1.037874444073E+01 6.817657098162E+00 8.641265785926E-01 3.195389632830E+01
 1.381146052362E+00 -4.274735495176E-01 1.464541141527E+00 7.259345658304E+00 -3.022272756868E+00 9.723604687993E-01 -3.339546325226E+00 7.919074423008E+00
 2.168420386551E+00 -5.575561622800E-01 2.731436062974E+00 1.429845351899E+00 1.061040116172E+00 1.507408792214E-01 2.594189327713E+01 -3.311113970970E+00 7.615240085112E+01
 -1.626529925373E+00 5.811551903055E-01 -1.806127041396E+00 -1.714049560703E+00 -1.035178436766E+00 -2.532072122869E+00 -1.168331353440E+01 -5.606891971059E+00 -3.006389382105E+00 2.287051969476E+01
 1.428782727876E+00 -4.852719964647E-01 1.611063817916E+00 1.178067298227E+00 9.467213140638E-01 1.356835975736E+00 -3.864074756371E+00 -1.069377218539E+00 3.016586087895E+00 3.900008389972E+00 1.658273778917E+01
 9.560405949878E-01 -8.198788093654E-02 1.067552719559E+00 -7.571809433052E-01 5.737281276916E-01 -2.246932495023E+00 -1.834406950144E+00 2.224843961255E+00 -7.794527358523E+00 3.330357081846E+01 2.674989499757E+00 1.321802326936E+02
 -6.700304165539E-01 2.916490428825E-01 -6.147167391441E-01 -8.583384306733E-01 -4.066182030624E-01 -1.302564100373E+00 -1.117548985959E+00 -4.209409811330E-01 -2.983614579647E+00 -7.445600097213E-01 -7.384547964852E-01 -4.243786575935E+00 2.248632212842E+01
 -7.673821990380E-01 2.748959911640E-01 -8.645959827540E-01 -6.180285591031E-01 -4.755796967283E-01 -7.465086766129E-01 -3.093807514350E-01 -6.131539692246E-01 -8.961145443457E-01 7.161833261425E-01 -1.263426850528E+01 1.737180658529E+00 -7.430226071641E+00 1.781091107011E+01
 2.373529105236E+00 -6.979419671256E-01 2.953613356048E+00 1.061741209693E+00 1.529070754634E+00 6.283355286904E-01 -9.099919374172E-01 2.306907109715E+00 -1.744010316032E+00 -5.300924496254E+00 3.490012438256E+00 -7.597824657126E+00 2.751722086924E+01 -3.969408555577E+00 7.551611497525E+01
 -1.495149538047E+01 -9.508924523871E+00 2.870849385504E+00 -3.004824464233E-01 -2.323531456248E-01 -5.415939710192E-01 -3.934595716915E-01 -1.812431355663E-01 -1.148272308677E+00 -1.032964681825E-01 -2.647320562428E-01 -1.488286872484E+00 -9.737599760337E+00 6.931511985065E+00 -8.690259580395E-01 3.082243227330E+01
 -1.016648420198E+01 -6.221904731862E+00 1.127784256047E+00 -6.299459403609E-01 -4.875115379793E-01 -5.792892854677E-01 -2.574633864395E-01 -7.224791863372E-01 -7.566113428745E-01 1.053708748603E+00 -6.932127867449E-01 4.770754054429E-02 7.177868107814E+00 -4.629486773643E+00 -1.116459320459E+00 5.111869632360E+00 1.248325282647E+01
 5.120544422521E+00 1.383600568851E+00 1.724461486958E+00 1.243430568784E+00 1.298300590626E+00 1.451669664523E+00 3.153151251970E-01 1.785301150110E+00 1.047749974908E+00 -2.980393832997E+00 1.805631399530E+00 -1.824938449499E+00 -1.012825044133E+00 -1.355513449367E+00 1.142755849610E+00 1.021051764653E+01 2.335995323126E+00 3.906401578163E+01
 6.009777126469E-01 -1.028514550442E+00 -2.011096007480E-01 6.161328583690E-01 5.371169029735E-01 1.481985826229E+00 9.826500478007E-01 5.858875085757E-01 2.583825777882E+00 -1.006745115778E-01 7.654836368575E-01 2.832925708488E+00 1.383715166834E-01 -4.962407602530E-01 2.740981416244E+00 -4.323786312734E-01 -1.181234547541E+00 2.191689638738E+00 7.637492265424E+01
 -2.573559897837E+00 -1.265494697303E+00 -4.515882856377E+00 -1.092416751370E+00 -1.062292327859E+00 2.448457249951E-01 1.321658417236E+00 -1.894420861388E+00 2.984847312658E+00 4.620753062000E+00 -1.604305508590E+00 7.880748782753E+00 2.946393864453E+00 7.645111190275E-01 2.452257487588E+00 9.228717014026E-01 1.072858760816E+00 -3.772227569908E-01 4.417364355945E+01 6.516758103002E+01
 -1.212731743544E+00 -2.645174724770E+00 -3.882237694193E+00 -1.135025757362E-02 3.308021758168E-02 -3.072753922657E-01 -3.353005490557E-01 8.424101871051E-02 -8.368274923909E-01 -4.449880053665E-01 3.204082063855E-02 -1.304318140464E+00 -3.629523116412E-01 3.245225863190E-02 -7.467357881739E-01 4.416562233106E-01 9.841323273375E-02 -1.146177638639E+00 -1.536614179400E+01 -1.292128798671E+01 1.454829821356E+01
 -1.371026245418E+00 3.988952235190E-01 -1.719462913901E+00 -4.931961930366E-01 -8.028343211672E-01 -1.287723279445E-01 6.986251494385E-01 -1.362126226725E+00 1.672740449715E+00 3.180989743714E+00 -1.177217109858E+00 5.081984971720E+00 1.983117308831E+00 6.938656945270E-01 1.031524048197E+00 -5.870842476828E+00 -8.295949010739E-01 -1.513901496182E+01 -4.870827947571E+01 -6.774803219315E+00 8.656328711833E+00 5.471497400756E+01
 -5.157242064068E-01 6.678458750164E-02 -4.095446498084E-01 -2.542439094988E-01 -2.374268154093E-01 -3.846347130795E-01 -1.348931723202E-01 -2.536330362233E-01 -4.141453227836E-01 2.916419750817E-01 -3.033235579920E-01 -1.851972579410E-01 6.196018786899E-01 9.752029747702E-02 6.107220799881E-01 -1.990332847800E+00 -5.033038314391E-01 -5.359671524964E+00 -3.130213623998E+00 -1.428769352674E+00 6.731861284988E-01 3.708721788277E+00 3.460418774371E+00
 5.510591838592E-02 6.201507023853E-02 4.692541108023E-02 2.865641535866E-02 2.464627337172E-02 -1.576897544114E-01 -2.354905067413E-01 1.378081491302E-01 -6.035234398887E-01 -4.502004242887E-01 4.984731602096E-02 -1.128765276039E+00 -2.131981868401E-01 -2.088113810849E-01 -7.713226139424E-01 -1.533055390342E+01 -5.223708680181E+00 -3.564513240320E+01 8.173499735196E+00 1.561776206329E+00 -1.412354670075E+00 4.060890236848E+00 7.592202709049E+00 7.961273880036E+01
 -6.097534233616E-01 1.557627754048E-01 -8.333395815921E-01 -6.892333964112E-02 -3.942085205178E-01 2.770751763640E-01 7.886270164902E-01 -7.042194678374E-01 1.814801814133E+00 2.047591103398E+00 -6.986619952447E-01 3.737028074750E+00 -1.228589495346E+01 1.595207088967E+00 -2.813958483039E+01 5.475337752044E-01 1.198245158436E-01 3.621140360914E-02 -1.124912951438E+00 -1.992298489533E+00 4.082940489074E-01 -2.764945145314E+00 1.025038134584E+00 3.897734607774E-01 1.586036331102E+01
 -7.812721336788E-01 2.678314812311E-01 -7.770832549879E-01 -8.352342161394E-01 -4.964583021181E-01 -1.290378378476E+00 -1.072818038459E+00 -4.843818325440E-01 -2.656047216344E+00 1.174940444743E-01 -7.929492835424E-01 -2.266386164125E+00 6.671459769522E-01 -1.994537937128E-01 -1.579012776905E+00 -1.285749368229E-01 5.227727607572E-01 -1.369557474756E+00 1.932351055442E-01 2.414960073140E+00 -2.800139544572E-01 2.944737771330E+00 -1.037365702173E+00 -3.534184379578E-01 -9.536088186862E-01 2.253082922761E+01
 2.519701334214E-01 -1.133276746271E-01 2.064262431054E-01 1.696747659678E-01 8.101039870316E-02 5.116808991906E-03 -4.785336645934E-02 2.781406047975E-01 5.801309202974E-02 -2.203039802481E-01 5.657047973879E-02 -3.952344713390E-01 -3.175205195644E+01 1.662093233523E+00 -7.624782449153E+01 1.556022331073E-02 -2.303031069606E-01 3.933630405888E-01 1.505738976576E-01 -1.114744353532E-01 -2.851799377905E-02 -3.072175511360E-02 -9.728285266973E-02 -4.480415707557E-01 2.449344677514E+01 1.539088582100E+01 1.622431067896E+02
 8.813559756617E-01 -3.340622463013E-01 9.020871788444E-01 1.058173709967E+00 5.410933427843E-01 1.651491156210E+00 1.431985164537E+00 5.218148747371E-01 3.537209470078E+00 -1.263167769765E+01 1.220730748708E+00 -3.207999076215E+01 7.228429718117E-01 -4.431347212064E-01 3.695865111752E+00 2.084155980893E-01 -5.865567376506E-01 1.904912713704E+00 -2.984782420873E-01 -3.680956534712E+00 4.317840904425E-01 -2.400985197643E+00 -1.269628426867E-01 3.742087970327E-01 -1.995966684053E+00 -2.250564502361E+00 6.257311087806E-01 2.650266936577E+01
 -6.696796515174E-02 6.331528645585E-02 -9.947089571333E-02 -3.184072391050E-01 -4.389576209551E-02 -6.341402323219E-01 -5.726769754577E-01 1.108157702258E-01 -1.433513581394E+00 -1.168059437338E+00 -1.425293456126E+00 -8.683123823670E+00 -6.131565252802E-01 1.046039822509E-01 -1.454668177907E+00 -2.149751905258E-01 1.222381615353E-01 -6.323359694323E-01 3.468299801022E-01 1.619212507768E+00 -2.209654823198E-01 1.086154947296E+00 2.186387612090E-03 -2.026845854036E-01 -1.117048613025E+00 -1.620985940581E+01 1.890393899249E+00 1.019399832089E+01 2.703581268748E+01
 3.753430523886E-01 -9.290861265682E-02 2.189999037255E-01 2.004016868826E-01 1.900360332615E-01 1.033780176347E-01 2.984802615579E-01 5.063951435450E-01 6.710837344941E-01 -4.191980295296E+01 -3.076603421417E+00 -1.434967267732E+02 -2.321931427461E-01 -3.604707923401E-01 7.943666918979E-01 -1.049238799585E-01 -1.886568159137E-01 2.938781070625E-01 1.315304917886E-01 -3.432250994298E-01 3.986613063515E-02 -2.078648980474E-01 -3.966683706215E-02 1.001962882890E-02 1.380268031247E-01 1.941976109986E+00 -3.628494215413E-01 4.429715673608E+01 2.739767674775E+01 2.942689944639E+02
 -4.271376099203E-02 -6.528880895715E-02 -1.855362956424E-01 4.073439038740E-01 -9.949716016609E-02 6.415851364028E-01 -1.108014467738E+01 2.449399964829E+00 -2.604101854262E+01 1.061152679876E+00 -1.853252638704E-01 3.124955362231E+00 1.071786945432E+00 -7.284172265535E-02 2.338725321361E+00 3.431731159967E-01 -1.273510566794E-01 7.208076707333E-01 -6.608270670466E-01 -2.418447844426E+00 3.891495191498E-01 -1.606641711802E+00 8.733832242049E-03 3.209175790005E-01 -1.311411437628E+00 1.151063461020E+00 7.628295707410E-02 -1.238512646158E+01 -6.886412626191E+00 2.570690506693E+00 2.569321667833E+01
 1.065459524731E+00 -2.842998658519E-01 1.285069395774E+00 5.827329772583E-01 6.940291599505E-01 4.890281757424E-01 2.120907489753E+00 1.012337992011E-03 3.844155971216E+00 -2.160748836657E+00 9.205021306478E-01 -2.479412057455E+00 -1.194514780933E+00 -4.866759224944E-01 -2.335944424510E-01 -4.300202802154E-01 -4.249383031352E-01 7.360126730619E-01 1.107107122822E+00 7.889060458436E-01 -2.757844782894E-01 3.328103962862E-01 -2.024085807175E-01 -1.711804629768E-01 4.491812866764E-01 -1.024798425497E+00 8.286817785511E-02 -5.376333104174E+00 -5.213247181522E+00 1.712005987601E+00 3.161021759432E+00 1.270884891640E+01
 3.889789729973E-01 -2.857792358848E-02 3.373860258331E-01 3.961607399197E-01 1.948245701923E-01 4.148215254948E-01 -2.954398540924E+01 5.777642260709E+00 -7.725879409248E+01 -8.776380319519E-02 2.100820856788E-01 6.990482508577E-02 -2.598391933666E-01 -1.675025053026E-01 3.490897574814E-01 -1.343319592515E-02 -1.932766224536E-01 3.191195064124E-01 1.894941804134E-01 -3.682252160887E-01 1.137610404301E-01 -2.024712898033E-01 -4.813555961708E-02 1.116288154415E-01 -5.301036074885E-02 -2.100059765707E-01 2.816624331953E-01 2.749838115346E+00 1.694034546434E+00 -6.907624236042E-01 2.286425993215E+01 1.592615850493E+01 1.624074624350E+02
 -3.323941266127E-01 -4.736166688670E-02 -4.081119907243E-01 -2.473468310538E+00 1.095659431366E+00 -8.908449769839E+00 -1.019075481735E-01 -3.717502588984E-01 -2.650395756194E-01 1.109276669804E+00 -3.422826150397E-01 2.234455482227E+00 6.967011950714E-01 1.804011371300E-01 7.790033166851E-01 2.297700793918E-01 7.857595081525E-02 6.032616965879E-02 1.048754705789E-01 -5.644545406010E-01 5.967212149788E-02 -5.566153384203E-01 2.912736481529E-02 1.562691942923E-01 -5.599217050791E-01 6.075902339730E-01 4.522498821097E-02 -9.069771360806E-01 4.573060831030E-01 -1.527892616973E-03 -2.620475556789E+00 9.276830675949E-01 1.597697569688E-01 1.108617601560E+01
 1.413902302416E+00 -4.699691904094E-01 1.778851433760E+00 2.424358231069E+00 2.183515048177E-01 4.945458348482E+00 -6.040495067439E-01 1.515261243518E+00 -1.611306542207E+00 -3.131107598111E+00 1.229768250422E+00 -4.809224214566E+00 -1.946012777695E+00 -6.428016130780E-01 -1.197727759639E+00 -6.782861194839E-01 -4.848837983349E-01 6.573419727250E-01 1.804634836174E+00 1.813227322108E+00 -5.156140454036E-01 1.077144921196E+00 -2.369836019228E-01 -3.478075192418E-01 1.179090420735E+00 -1.704934566812E+00 6.485542096535E-02 2.341947612553E+00 -1.015608773403E+00 1.853540966874E-01 2.500560428590E+00 -9.082852549953E-01 8.097595091609E-02 -1.584349549374E+01 4.860027470232E+01
 -3.875689882947E-01 1.122561801620E-01 -3.757005087712E-01 -9.385122179578E+00 5.327692272683E+00 -3.998798525661E+01 1.376391967723E-01 -3.629965658000E-01 -3.460435662725E-01 2.445354828327E-01 -2.300146438028E-01 -3.019089946723E-01 7.817956780032E-02 1.118398845775E-01 -4.433489878508E-01 1.058336596346E-01 7.305307337932E-02 -3.524860624085E-01 -2.558472415255E-01 2.580724105110E-01 5.410210440371E-02 2.027626535518E-01 6.373887319628E-02 5.061456018954E-02 1.225781200519E-01 1.362714861885E-01 2.005309345216E-02 -1.249826734659E-01 -1.574127108716E-02 -8.797838778888E-02 1.577385075303E-01 -2.560740982582E-01 -5.094626446577E-01 1.332719261832E+01 5.851080964367E+00 7.823446332978E+01
 1.277925407017E+00 -7.618307233780E-01 3.011772353144E+00 1.185080874171E+00 1.235983288271E+00 -8.993398682653E-02 -9.258735683989E-01 1.725108296779E+00 -2.007237031103E+00 -3.909851395359E+00 1.437120540017E+00 -6.290474525594E+00 -2.536150762810E+00 -7.102383721372E-01 -1.979737521876E+00 -7.178248862435E-01 -8.839394305597E-01 5.642425114344E-01 -2.547267223644E+01 -3.727936060285E+01 8.068869528293E+00 1.426894078981E+00 -1.923842482370E-01 -4.634660192781E-01 1.686217545717E+00 -2.069835810052E+00 1.280477386414E-01 3.057767064580E+00 -1.319255179978E+00 3.070165441199E-01 1.825970008349E+00 -4.386362894862E-01 3.289944347408E-01 -5.495644972235E+00 1.226329900461E+01 -6.700081628836E-01 3.220840360701E+01
 -2.927858931652E-01 -2.898473655562E-02 9.293290956571E-01 -7.806975908524E-01 -9.879510630725E-01 -1.768182181618E+00 -1.407407440405E+00 8.207492897023E-02 -3.456107617900E+00 -1.805431350735E+00 -2.408480316206E-02 -5.862202143403E+00 -1.499117243581E+00 6.188290258773E-02 -3.564459586910E+00 -2.982180769413E-01 -2.666009605011E-01 -1.312119310072E+00 -4.085189201778E+01 -6.180747415382E+01 1.320108269875E+01 2.137049609044E+00 8.748687494568E-01 -4.997597071912E-01 1.865841409499E+00 -9.971242244901E-01 -1.362750985812E-01 1.763877640586E+00 -1.008538200527E+00 -1.220280157732E-02 1.738121954273E+00 -1.230560641055E+00 -6.701094401368E-02 1.619038681175E+01 -4.594172467497E+01 2.118275674544E+00 2.471356286592E+01 1.096900876647E+02
 7.511577566849E-01 1.278248096979E+00 -6.093722644997E+00 -2.945675484231E-01 -9.113809618186E-01 -7.667067235826E-01 1.058110580057E-01 -4.800450230501E-01 2.409018874989E-01 1.071848600498E+00 -4.730134513022E-01 1.442014299922E+00 6.247370260795E-01 2.385114456419E-01 1.625287772349E-01 1.559956341421E-01 3.081353636558E-01 -3.343453972812E-01 8.334326848811E+00 1.297580783627E+01 -2.697633171565E+00 -1.562684788610E-01 -2.865245790419E-03 1.436730678086E-01 -3.054427121247E-01 5.565260092040E-01 8.448803853839E-02 -7.950985066717E-01 3.333636411970E-01 -4.637693782094E-02 -4.293808493265E-01 -1.333859355560E-02 -1.187101660954E-01 -7.080606605196E-01 2.551176999788E+00 2.002584113836E-02 -6.464227000338E+00 -1.449572450985E+01 1.336837777186E+01
 7.221239463658E-01 -2.549774518229E-01 8.317107018978E-01 5.318073054931E-01 4.611255810872E-01 5.967663929466E-01 2.383570478318E-01 6.066213417453E-01 7.154973451425E-01 -8.390701628667E-01 6.242325600044E-01 -6.315143166546E-03 -3.980540505023E-01 -3.400197869528E-01 7.457810390557E-01 -2.265812843130E-01 -2.560575459578E-01 8.281215102237E-01 5.060660614729E-01 -5.662671521471E-01 -1.930162816947E-01 -4.641169975716E-01 -3.060468973594E-01 4.215833839093E-02 -1.245565172125E-01 -4.183243148931E-01 1.841046856937E-01 4.774271171405E-01 -9.774121855221E-02 1.499841126966E-01 8.359996353891E-02 3.921256990145E-01 1.511824457288E-01 -8.092908722023E-02 5.100668133900E-01 -5.896312402384E-02 -9.409878988860E-01 -1.202886642165E+00 -2.569347116016E+00 1.694454874981E+01
 -1.225656584675E+00 3.645471874683E-01 -1.328396815396E+00 -7.943538198896E-01 -7.704181814754E-01 -1.148671430322E+00 -5.082842661571E-01 -9.544360876406E-01 -1.471410941007E+00 1.160245361877E+00 -1.043802670985E+00 -6.903588771126E-01 4.771768332661E-01 5.343458915613E-01 -1.769608256780E+00 1.978871114253E-01 6.537908155150E-01 -1.472276590058E+00 -4.510087498301E-01 5.514758947084E-01 1.984651799243E+00 9.781080065503E-01 1.933965873605E-01 -1.351915003071E-01 4.729402930410E-01 5.283299730548E-01 -2.027509330511E-01 -6.177767460272E-01 4.380929623083E-02 -2.749012820925E-01 -1.737339699800E-02 -7.660209245148E-01 -3.562634757867E-01 1.055444596930E-01 -1.077730424278E+00 2.367166690478E-01 -2.361542977259E+00 -7.235910829846E-01 -1.407562736822E+00 1.301209723575E+01 2.963276056360E+01
 -1.810702222390E+00 6.035926304591E-01 -2.015256540392E+00 -1.449826917995E+00 -1.127848028908E+00 -1.830884188796E+00 -8.746882165650E-01 -1.452012645903E+00 -2.549540068110E+00 1.789526034452E+00 -1.572929928098E+00 -9.891493582338E-01 6.595642118230E-01 8.357645824884E-01 -2.742920938344E+00 2.986319985258E-01 8.869504410326E-01 -2.361016808465E+00 -1.198078769157E+00 3.817062138326E+00 -5.266724002378E+00 1.585616589168E+00 4.532126284961E-01 -1.545692358756E-01 7.435569995674E-01 7.945556051956E-01 -2.724818593985E-01 -9.257298449613E-01 9.924777980989E-02 -2.738249072738E-01 1.277970601361E-01 -1.220889801147E+00 -3.790965239792E-01 3.731843570141E-01 -1.671753766858E+00 2.616752824515E-01 -4.002875902142E+00 -1.624337731097E+00 -3.126235382662E+00 -2.335743509091E+00 -3.553208475198E+00 1.239621301404E+01
 -7.254654688255E-01 1.908279773640E-01 -7.086647094035E-01 -4.990650866898E-01 -4.237780975998E-01 -6.558744518059E-01 -3.043789617013E-01 -5.266071676955E-01 -8.822328027271E-01 6.025146080913E-01 -5.863783212888E-01 -5.127285342339E-01 1.731729665079E-01 3.304847636691E-01 -1.098711685860E+00 3.188649934647E-01 2.643448057088E-01 -1.151568641142E+00 -1.159353434461E+00 4.706930616946E-01 -5.474209280564E-01 1.310805027496E-02 4.596838745660E-01 3.528851486076E+00 3.422758489557E-01 1.867555758577E-01 -2.115962436797E-01 -2.916166473889E-01 6.953496459538E-05 -1.660856505376E-01 2.593487595434E-02 -4.603927272790E-01 -2.621927402569E-01 1.095513853650E-01 -5.845171289119E-01 7.411220178083E-02 -5.109444467311E-01 1.813732096518E-01 1.956787299862E-01 -1.480676801844E+01 -9.001090404127E+00 4.327798603380E+00 2.507187690451E+01
 -1.179667787217E+00 4.635839211018E-01 -1.516894563053E+00 -9.108173552811E-01 -7.967524053856E-01 -1.021108355274E+00 -3.358891632535E-01 -1.094490301926E+00 -1.022302795686E+00 1.659132282651E+00 -1.121416933037E+00 5.592389344233E-01 7.828309481115E-01 6.019106989338E-01 -1.265202599599E+00 2.931097285128E-01 5.303489380368E-01 -1.422157973085E+00 -1.680598814976E+00 1.122091994212E+00 3.099548098687E-02 1.613961601213E+00 8.191203936594E-02 -3.054587304431E+00 1.652151147082E-01 8.635966559926E-01 1.406545554764E-02 -9.866206806803E-01 2.938577077844E-01 -1.262109901381E-01 -2.668968904009E-01 -6.046818148989E-01 -2.202207844987E-01 1.094284785364E-01 -6.584477961929E-01 2.659257863506E-01 -1.015570326961E+00 3.072033297935E-02 4.082877458847E-01 -9.742051012814E+00 -5.435806506839E+00 3.734591589491E+00 3.098152413507E+00 1.255845811736E+01
 -1.588100977821E+00 4.662385595354E-01 -1.932731375376E+00 -9.359491434926E-01 -9.896304244998E-01 -9.706995526410E-01 -5.156562120007E-02 -1.427138162707E+00 -3.130407234530E-01 2.551740560181E+00 -1.376582977600E+00 2.227109867051E+00 1.420116355488E+00 7.261015781654E-01 -4.853481973245E-01 8.035713968148E-01 7.355538630902E-01 -1.335656213658E+00 -1.826108441999E+00 -3.970985776492E-01 -2.124254640363E-01 2.898424718975E+00 -2.810041717141E+00 -4.190234357969E+01 -2.133784878713E-01 1.221274630130E+00 7.001641293529E-02 -1.712157591402E+00 6.309091979996E-01 -2.129573342131E-01 -7.778402670226E-01 -4.117357281630E-01 -3.196364748267E-01 -1.724499381143E-01 -2.209323797574E-01 2.520119889167E-01 -2.198315679023E-02 1.401708502234E+00 1.537235300839E-01 3.025036802502E+00 3.578318295564E+00 8.384846750286E-01 -6.812576486664E+00 2.618267986048E+00 4.450256688171E+01
 -1.382847144602E+00 4.821759488295E-01 -1.548807589570E+00 -1.182476072080E+00 -8.833428489666E-01 -1.534493181403E+00 -8.287021441797E-01 -1.087454846675E+00 -2.355006995788E+00 1.048427163232E+00 -1.227897996729E+00 -1.829190648000E+00 8.168843497775E-01 3.838133159870E-01 -2.815462375637E+00 1.343226871250E-01 7.470530233270E-01 -1.938981049797E+00 -7.436956966252E-01 2.041602575046E+00 -3.885228705786E-02 1.543437771680E+00 3.742112539955E-01 -3.325112288433E-01 -8.545479020601E-01 2.547645430831E+00 6.650190836730E+00 -4.215121170592E-01 -6.305551083087E-02 -7.963230797877E-02 3.085607372625E-01 -1.082477554377E+00 -2.707007302510E-01 4.495071649006E-01 -1.517179797190E+00 2.646948859848E-01 -1.804202246810E+00 -2.941628020729E-01 5.480424592969E-01 -6.249357537130E-01 1.037211004677E+00 1.513465757773E+00 -8.743012342959E+00 7.830120918518E+00 2.603502476557E+00 1.180121115777E+01
 -9.113221200489E-01 2.758667225129E-01 -1.066474264346E+00 -5.073846263781E-01 -5.603917725540E-01 -4.567176588539E-01 8.243545512624E-02 -8.211668799092E-01 1.819047851188E-02 1.554393242893E+00 -8.278088892897E-01 1.475376011006E+00 6.409157894715E-01 5.475227713464E-01 -1.763165775048E-01 3.940558248002E-01 3.985903703244E-01 -7.303882409817E-01 -8.950478829049E-01 -2.198137619948E-01 1.686507778732E-01 1.446357980098E-01 -8.795527313463E-02 2.314964492783E-01 1.488278212474E+00 -3.926900605120E+00 -1.921900465742E+01 -9.933737255874E-01 4.644257991495E-01 1.616176445412E-01 -6.157609999598E-01 -1.565806108334E-01 -1.488940174446E-01 -1.031633472818E-01 -8.886776858364E-03 1.511347351999E-01 1.175754634712E-01 8.521511446725E-01 4.971516058343E-02 -3.697442043506E-01 6.958713214030E-01 1.028608612186E+00 7.235759889104E+00 -4.584862598601E+00 -3.345951239211E-01 -7.490183686095E+00 2.217654726020E+01
 -2.068990575748E+00 6.015976591939E-01 -2.514104443477E+00 -7.647885492845E-01 -1.251919892168E+00 -7.834881827386E-02 1.238892428515E+00 -2.109238998469E+00 2.483024079758E+00 4.773909696154E+00 -1.862284925139E+00 7.475200005584E+00 3.228531796276E+00 9.004504239131E-01 1.931208449118E+00 1.268562785552E+00 8.011486274440E-01 -7.665133154256E-01 -2.523095126740E+00 -2.946799520734E+00 7.641391777845E-01 -1.531791707327E+00 -7.934551477758E-01 4.868766996950E-01 3.240326846769E+00 -1.594156303611E+01 -8.462528178421E+01 -3.646406708853E+00 1.489955804682E+00 -2.976241018600E-01 -2.470394132285E+00 5.151607446367E-01 -6.456496144865E-01 -9.553243305650E-01 1.628442000069E+00 3.357562965623E-01 2.398296898896E+00 3.660667205737E+00 -4.250081520639E-01 -6.670491404728E-01 1.561462190012E+00 2.390248730464E+00 2.225006346484E+00 -5.120867706460E-02 -2.044497853945E-01 -5.214181785861E+00 1.890844995126E+01 8.253660623174E+01
 -1.472579680601E+00 4.758800856508E-01 -1.669506762562E+00 -1.111906517029E+00 -9.416078144581E-01 -1.352421422893E+00 -5.981851660805E-01 -1.247218667620E+00 -1.664536342921E+00 2.551850602279E+00 -2.135343869200E+00 -1.501046493409E+00 7.261230805467E-01 7.193686677922E-01 -1.832645380192E+00 2.942366715943E-01 7.231808056194E-01 -1.784842166618E+00 -8.714861324677E-01 1.308753175590E+00 2.742005354798E-02 1.054656082616E+00 2.708065135021E-01 -2.250412083175E-02 4.735331911162E-01 6.781280987978E-01 -4.190663235883E-01 -3.652149422669E+00 5.960483225611E-01 -5.508027811171E+00 -1.439921937959E-01 -1.050786602754E+00 -5.565079601811E-01 2.449079018090E-01 -1.095777049747E+00 2.398004866394E-01 -1.215991974511E+00 2.634279855554E-01 4.284485186380E-01 -6.432597000106E-01 1.049185692196E+00 1.628622056634E+00 6.033999772867E-01 1.206961300054E+00 1.339603062597E+00 1.195581962688E+00 5.141708482145E-01 1.757888000729E+00 1.276358164836E+01
 4.441578634467E-01 -2.063412015793E-01 5.643648983423E-01 6.501267225170E-01 2.971748626522E-01 1.095810524835E+00 9.110493952563E-01 2.080922326055E-01 2.058182281339E+00 -9.653439447058E-02 7.872418772767E-01 3.278448876374E+00 5.421379572582E-01 -3.032245252897E-01 2.182209674211E+00 1.499261148329E-01 -3.311119840933E-01 1.154280366143E+00 -1.219189073947E-01 -2.038796369532E+00 2.094390572882E-01 -1.427471776430E+00 -1.159907913379E-01 2.422757315890E-01 -9.769131560060E-01 -5.783751711695E-02 1.676088414236E-01 -1.111890374878E+00 -5.438997808589E+00 -2.779515680748E+01 -6.538770245823E-01 8.573256288971E-01 6.780480936818E-02 -5.888567805252E-01 1.419307663134E+00 -5.040710682788E-02 1.703351012610E+00 9.875947409280E-01 -4.629530140411E-01 2.665581862703E-01 -3.365835296696E-01 -5.374573423112E-01 -1.506442104143E-01 -6.089870569852E-01 -1.048367651300E+00 -4.439965005999E-01 -1.276029730950E+01 -8.666212941148E-01 4.795267819156E+00 1.993994811541E+01
 -9.767501074167E-01 6.325933299214E-02 -9.140638890609E-01 8.093303355331E-01 -5.323091796654E-01 2.462852250326E+00 3.408086230976E+00 -1.732409334577E+00 7.327502401793E+00 6.478422304245E+00 -1.536385366527E+00 1.326608045529E+01 4.488730457033E+00 1.700758953895E-01 7.220867831722E+00 1.514032988349E+00 -5.169292644590E-02 1.965417692043E+00 -2.813995027601E+00 -7.967040944875E+00 1.279096107105E+00 -5.176104201162E+00 1.670048314420E-01 1.134079565829E+00 -3.940646120195E+00 2.179924050258E+00 -3.984997326842E-01 -1.504246452072E+01 -2.241060361185E+01 -1.505549032315E+02 -3.217541341948E+00 2.551462211867E+00 -8.710933747273E-01 -2.302679807260E+00 4.919563246172E+00 3.227425864951E-01 6.362548225381E+00 5.908496897918E+00 -1.517382261462E+00 -1.294920188718E-02 7.425759936181E-01 8.975569662752E-01 5.647189095018E-01 -6.944328203899E-01 -2.347528266476E+00 1.609373930190E+00 -1.003787698546E+00 -7.754354407364E+00 4.733200981256E+00 2.253603590366E+01 1.389944237613E+02
 6.799836160357E-02 -3.701992681186E-02 1.032348795118E-01 5.881911247595E-03 8.524078192519E-02 1.497948371136E-02 3.323284490137E-01 -2.638405137771E-01 -2.396370785700E-01 -2.622922442949E-01 7.944829411611E-02 -4.743769804882E-01 -1.135622169521E-01 -3.944166215121E-02 -1.232961645464E-01 -4.310992610227E-02 -1.159829181432E-02 3.386124109474E-02 1.092268549940E-01 1.479537700438E-01 -4.018121698516E-02 6.906623031353E-02 -5.470788642634E-03 -1.850475573599E-02 1.060372802867E-01 -1.797856158513E-01 -5.066363916355E-02 1.713490825991E-01 -7.759243745835E-02 -2.230962877555E-01 -1.109663875782E+00 1.688424877882E+00 4.040631715000E+00 -1.027217078497E-01 -3.346624605811E-02 -2.197752240724E-01 -1.045859740806E-01 -1.776628274671E-01 4.509513044341E-02 4.728671940299E-02 -6.787082486755E-02 -9.457289586498E-02 -2.602039011784E-02 -5.438688588118E-02 -1.082905580079E-02 -8.133402692112E-02 3.931136747257E-02 1.991131786839E-01 -9.588274016036E+00 -4.314061583243E+00 3.109467599122E+00 2.083836727435E+01
 8.730526858572E-01 -3.325710942505E-01 9.125609806624E-01 9.384549707536E-01 5.199374563179E-01 1.392042747715E+00 7.273841096320E-01 8.385435962448E-01 2.841829538347E+00 -2.604048840678E-02 7.744458059823E-01 3.194494445926E+00 3.018464143110E-01 -4.153389567714E-01 2.742993862955E+00 5.214461053263E-02 -5.365476230580E-01 1.622160087995E+00 4.256318189302E-02 -2.533069873237E+00 2.404781596434E-01 -1.752732582961E+00 -1.790683538156E-01 1.934133215030E-01 -1.122126202518E+00 6.432100482528E-02 1.162562432577E-01 -3.123191841400E-01 3.592344497829E-01 -5.821886454052E-02 6.742083873901E-01 -5.448695304772E+00 -2.249810285474E+01 -3.088457226739E-01 1.903292830449E+00 -1.337293024745E-01 2.152806469227E+00 8.102775586955E-01 -5.771908466615E-01 4.898740969287E-01 -6.123740783647E-01 -9.260418164720E-01 -2.994191732551E-01 -9.176510511644E-01 -1.357109921130E+00 -6.462303252459E-01 -8.358374320164E-01 -2.535665709057E+00 -5.298258635824E+00 -2.394591635501E+00 -1.785325270730E+00 -3.165453712620E+00 1.265108183430E+01
 -2.747428080958E+00 6.724517993198E-01 -3.308073355807E+00 -1.296671029542E+00 -1.815033463138E+00 -7.399070876654E-01 8.280877014591E-01 -2.839355487303E+00 1.424560851526E+00 5.435003179966E+00 -2.362562647369E+00 7.095274836468E+00 3.353901463311E+00 1.173412530193E+00 1.239156761950E+00 1.197830145481E+00 1.038516889722E+00 -1.621994579595E+00 -2.928163201241E+00 -2.513974079283E+00 7.469976593795E-01 -1.322381649298E+00 5.000525557514E-01 4.977677009864E-01 -1.730393295907E+00 2.944713478645E+00 -4.092450743246E-01 -3.857905626016E+00 1.546567730278E+00 -1.834705151972E-01 4.372905924796E-01 -2.134407235188E+01 -8.347160695940E+01 3.381898697347E-01 1.164661318510E+00 1.062910887086E-01 1.560320965546E+00 3.619245680731E+00 -7.856622215752E-02 -9.699234606200E-01 1.959392877782E+00 3.155344551999E+00 1.214590778907E+00 1.425652763699E+00 8.152024157243E-01 2.815828327158E+00 2.390109393461E-01 -1.687908395642E+00 4.349115026675E+00 -1.500879091266E+00 -8.039232603371E+00 -7.318318247534E+00 1.911874039720E+01 8.334663690565E+01