#BIOSYM hessian 1
@Type: Hessian Update
@Units
 distance: 	A
 energy: 	Kcal/Mol
#header
@natom 14

#label
L1      L2      L3      L4      L5      L6      L7      L8      L9      L10     L11     L12     L13     L14

#element
Li Li Li Li Li Li Li Li Li Li Li Li Li Li

#matrix
42
 2.034000884172E+00
 -1.832897848735E-02 2.029761892408E+00
 -3.964789516910E-02 -1.325070848336E-01 9.728850444173E-03
 -3.577455201488E-03 -3.023190354209E-02 1.635715975821E-04 2.035237906337E+00
 -3.302771877592E-02 -2.022777975780E+00 1.331880285940E-01 -2.870827687292E-03 2.026027325368E+00
 2.716524434902E-03 1.354216556891E-01 -8.929704412167E-03 -4.641571413817E-04 -1.356999656922E-01 9.093450386061E-03
 -9.017711710394E-04 3.868897858375E-03 1.697270857972E-03 -2.030586423823E+00 3.760616047785E-02 -1.916873474713E-03 2.035152125813E+00
 3.151371067451E-03 1.970262046120E-04 1.771617218367E-03 3.274433658714E-02 -3.558473783062E-03 7.384348996578E-04 -8.823560092583E-03 2.020314410056E+00
 2.414102353392E-03 2.634112556174E-03 -3.718124915143E-04 -4.673029816787E-03 -2.300626380546E-03 1.089754834022E-04 2.530996086491E-03 -1.749158688062E-01 1.538696052212E-02
 -2.027397524642E+00 4.688927665864E-02 3.781061197245E-02 -3.191047229802E-03 -3.749848265113E-03 -1.979532403798E-04 -1.437189325605E-03 -2.503083029428E-02 -4.236862862367E-04 2.046695608856E+00
 5.128381727538E-02 -4.043358262989E-03 -2.696591968212E-03 -2.713893745044E-03 -2.659165173427E-03 -2.591292810664E-04 -2.950118809695E-02 -2.013970309601E+00 1.745532221995E-01 -2.941114225353E-02 2.022090620730E+00
 3.477365904142E-02 -5.273297788728E-03 -3.642485454110E-04 4.718972587994E-03 4.567897722474E-03 -2.564790834700E-04 -2.025966298660E-03 1.726469734152E-01 -1.518369566281E-02 -7.486624874716E-02 -1.532262120725E-01 1.025033659536E-01
 1.442596181380E-09 7.148724859866E-08 -1.485429806622E-08 0.000000000000E+00 0.000000000000E+00 0.000000000000E+00 -6.176784637700E-08 -1.459935690366E-09 -2.652572505782E-08 -7.885352053009E-04 8.955598652205E-04 -5.366079037286E-04 2.039410575919E+00
 -1.557984373748E-09 -7.720516014800E-08 1.604241944037E-08 0.000000000000E+00 0.000000000000E+00 0.000000000000E+00 6.670835006461E-08 1.576708237720E-09 2.864738512645E-08 -2.191869054927E-03 -2.924783464365E-03 -3.191127683840E-04 3.171389661768E-04 2.026565183590E+00
 9.326108140404E-10 4.621509848507E-08 -9.603011162074E-09 0.000000000000E+00 0.000000000000E+00 0.000000000000E+00 -3.993169611783E-08 -9.438199034041E-10 -1.714835841224E-08 1.265239891380E-04 1.388960273046E-04 2.490320939726E-05 3.515372884500E-02 3.287754581460E-02 3.163190852354E-03
 0.000000000000E+00 1.167652966059E-11 -2.425918975232E-12 0.000000000000E+00 0.000000000000E+00 0.000000000000E+00 -1.008767999952E-11 0.000000000000E+00 -4.332557326055E-12 4.533867690418E-04 -1.210458405614E-03 4.591595787199E-04 -9.657801342735E-01 1.014178024307E+00 1.351859859482E-03 2.123709777498E+00
 1.226674084942E-12 6.081563960749E-11 -1.263610289487E-11 0.000000000000E+00 0.000000000000E+00 0.000000000000E+00 -5.254611902088E-11 -1.240379816574E-12 -2.256559663987E-11 2.055466870172E-03 2.521582239058E-03 3.471545048469E-04 1.009913786267E+00 -1.066343709316E+00 1.448441023391E-04 1.831569038823E-02 2.075252734493E+00
 2.979906259777E-12 1.476042083453E-10 -3.067054741102E-11 0.000000000000E+00 0.000000000000E+00 0.000000000000E+00 -1.275363983587E-10 -3.014667279058E-12 -5.476926122725E-11 1.668086923547E-04 1.473354707833E-04 4.058172749173E-05 2.748868618879E-03 -2.695259661700E-03 -4.200896309681E-04 1.250007969533E-01 1.184750696921E-01 3.032221368007E-01
 1.809855329347E-09 8.968648178059E-08 -1.863590649547E-08 0.000000000000E+00 0.000000000000E+00 0.000000000000E+00 -7.749270952188E-08 -1.831607026689E-09 -3.327864259244E-08 -3.061776595465E-03 4.428115952550E-04 -1.426422935119E-03 -1.689726262224E-03 1.284903018425E-03 3.185670644696E-04 -1.051582520559E+00 -1.008652846068E+00 -4.179973767522E-02 8.156844443775E+00
 1.708266246132E-09 8.465226982313E-08 -1.758985122470E-08 0.000000000000E+00 0.000000000000E+00 0.000000000000E+00 -7.314295158050E-08 -1.728797111116E-09 -3.141067603468E-08 -6.325994455461E-03 -9.412998063516E-04 -2.545182619130E-03 4.527540814693E-04 1.443216739354E-03 -2.522290769109E-03 -1.009722632306E+00 -9.916767322485E-01 -4.525826785165E-02 -9.068221364907E-02 4.272752320981E+00
 4.183040640535E-10 2.072893891656E-08 -4.307254465382E-09 0.000000000000E+00 0.000000000000E+00 0.000000000000E+00 -1.791063123117E-08 -4.233329922183E-10 -7.691580570669E-09 -8.475868548478E-03 -5.845219338712E-04 -3.556697084593E-03 -3.983681786633E-04 -2.417253294460E-04 -2.962015499707E-03 -4.220125327638E-02 -4.034737906325E-02 -9.627408158950E-03 4.544672308607E-02 -2.005235767262E-01 8.393962355894E+00
 -2.124138407608E-03 -2.197552617374E-03 -2.350520666680E-05 2.117019917578E-03 2.042234250480E-03 -1.375405784286E-04 -2.226516730664E-03 -2.041311955274E-03 1.517141856894E-04 -1.030585856078E-02 9.498435966993E-03 3.947877147385E-02 -1.069264753231E+00 -1.014269762028E+00 -3.684644886479E-02 4.418903490378E-04 4.611113624115E-04 -7.103785788585E-04 -9.556592693149E-01 1.012486738804E+00 5.323258513550E-03 2.251250938091E+00
 -3.078492428435E-03 -3.137651411638E-03 2.440448786226E-04 3.072288387286E-03 2.968289368362E-03 -2.009956154416E-04 -3.150252392099E-03 -2.982651511493E-03 2.918523335229E-05 1.064890083920E-02 1.577396650947E-03 -1.964804265535E-02 -1.012657847291E+00 -9.570853901211E-01 -2.908760614916E-02 3.445831235293E-03 -7.529235652914E-03 -3.581523933852E-04 1.004074340819E+00 -1.087047068990E+00 4.971088969880E-03 -3.466090707183E-02 2.071835060342E+00
 -2.563925899625E-04 -2.754812306171E-04 -6.306512879665E-05 2.546427725948E-04 2.446657562573E-04 -1.624237382635E-05 -2.853445621696E-04 -2.411547745007E-04 5.960762457002E-05 4.079008245387E-02 -1.937750256485E-02 -8.512833458594E-02 -3.697342358627E-02 -2.972468080622E-02 -2.559615816820E-03 7.603278590399E-04 -4.057063920089E-03 -1.416116431027E-04 -1.148741180740E-03 1.154541332395E-02 -5.221079431345E-03 1.140209431193E-01 -8.892057022944E-02 7.263422429467E-01
 1.674658486098E-09 8.298699444473E-08 -1.724382449965E-08 0.000000000000E+00 0.000000000000E+00 0.000000000000E+00 -7.170408793007E-08 -1.694787166612E-09 -3.079276808315E-08 -1.604010647438E-02 2.859271307581E-03 -7.589602404984E-03 -9.399324685775E-05 -1.408711965930E-03 -7.948849101390E-05 4.967268949800E-04 -6.173293468930E-04 5.450876264350E-04 -2.718961395794E-03 -2.484203122106E-03 -6.456496443198E-03 -4.271719529459E-03 -2.999716652475E-02 1.260110231136E-01 1.976039578631E+00
 4.120083312551E-10 2.041703009554E-08 -4.242443842728E-09 0.000000000000E+00 0.000000000000E+00 0.000000000000E+00 -1.764113191359E-08 -4.169645008617E-10 -7.575847751313E-09 -7.603417978790E-04 7.900074986885E-04 -5.014978568941E-04 -4.523123401394E-04 6.681234055628E-05 9.804385893161E-04 -6.975933493549E-04 9.015205301656E-04 -8.599924228325E-04 3.370198863799E-03 -1.138647676824E-04 -8.417322338822E-04 -1.731992497791E-02 -1.436424354785E-02 5.851546340183E-02 3.474440295172E-03 2.047300166413E+00
 6.391339823867E-10 3.167190634550E-08 -6.581088815618E-09 0.000000000000E+00 0.000000000000E+00 0.000000000000E+00 -2.736579480085E-08 -6.468140306677E-10 -1.175202913845E-08 2.088221903129E-03 -2.722056876193E-04 9.664079858290E-04 -6.861800115967E-04 6.060822203980E-04 -2.222917518209E-04 3.427901959230E-04 -7.285222119324E-04 1.280235506102E-05 -4.953785646160E-04 -1.353328419525E-04 -2.093646624514E-03 1.118728828394E-01 5.794688915245E-02 -3.395736989070E-01 -4.748278657184E-01 -7.136034947989E-02 4.089994606970E-01
 1.171958406813E-12 5.811964269880E-11 -1.207726545448E-11 0.000000000000E+00 0.000000000000E+00 0.000000000000E+00 -5.021754549735E-11 -1.188255125152E-12 -2.156566775240E-11 2.034552581723E-04 1.403743538117E-04 5.801438083201E-05 -2.847337354311E-04 4.357291809575E-04 -2.733977524644E-04 -1.220717012483E-02 1.036498303412E-02 4.069180277230E-02 -1.247041204664E-03 -4.641264907809E-04 -7.652100848627E-04 1.497009297402E-04 -9.755679913642E-04 2.588587314230E-04 -4.478041960668E-03 -4.024576397324E-02 8.415832218633E-04 1.976292845278E+00
 0.000000000000E+00 3.188577638668E-12 0.000000000000E+00 0.000000000000E+00 0.000000000000E+00 0.000000000000E+00 -2.754971975636E-12 0.000000000000E+00 -1.183076884856E-12 1.268898497301E-03 -8.493095509332E-04 7.353390606982E-04 4.148487348094E-04 -3.878337266588E-04 -1.164877211245E-03 9.987108896090E-03 -8.435936902538E-03 -3.011834274432E-02 -3.472573886502E-03 -4.181417408354E-04 4.668474167359E-04 -3.286588206252E-03 2.940193052404E-03 9.379552704727E-04 -4.359034769857E-02 -2.028482538776E+00 2.624876791001E-02 -2.410482016192E-02 2.045450348844E+00
 0.000000000000E+00 5.186699550755E-12 -1.077712783653E-12 0.000000000000E+00 0.000000000000E+00 0.000000000000E+00 -4.481456704185E-12 0.000000000000E+00 -1.924770484041E-12 -2.058257023699E-04 -2.283841252072E-06 -8.894920197454E-05 2.562230413169E-04 -2.153904890052E-04 -3.792102508557E-05 4.100735436916E-02 -2.969824087802E-02 -1.324195481187E-01 1.277716685610E-03 -1.129590593774E-03 -4.229362866169E-04 3.371742095173E-04 5.802942992797E-04 4.534975546555E-05 6.296116752857E-04 2.706517986695E-02 -1.165381952336E-03 -4.138572814256E-01 1.093155298129E-02 2.072733935383E-01
 0.000000000000E+00 1.999487472972E-11 -4.154134343698E-12 0.000000000000E+00 0.000000000000E+00 0.000000000000E+00 -1.727562266134E-11 0.000000000000E+00 -7.419265753473E-12 5.413721061540E-04 -1.372246995824E-04 2.649763310105E-04 2.909226890421E-04 -2.106587107910E-04 -1.729469667125E-04 -9.680254054002E-02 -3.168852144149E-02 -1.253914675561E-01 -2.635544571494E-02 -1.166597132572E-01 2.116763164556E-01 -6.141008200009E-04 1.314934829589E-03 -2.549851041084E-03 -6.183058529426E-04 3.269704766855E-03 -1.125485635154E-03 -1.957582320080E+00 6.394580162994E-02 3.689247144706E-01 3.460049893050E+00
 0.000000000000E+00 3.044143039119E-11 -6.325148301502E-12 0.000000000000E+00 0.000000000000E+00 0.000000000000E+00 -2.630525956459E-11 0.000000000000E+00 -1.129479720855E-11 -1.005908583449E-03 1.429842754505E-04 -4.680929748764E-04 2.169893783583E-04 -5.979100198583E-05 4.491167859926E-04 -3.061121086168E-02 -7.791624684693E-03 -3.957214732664E-02 -1.099443270319E-01 -1.089836573682E+00 1.861201138469E+00 1.191821180478E-03 -1.402931037045E-03 1.153950934744E-03 3.004717679814E-03 -4.575070064389E-03 1.501931303737E-03 5.529841546382E-02 -5.992654360123E-03 -4.712348010203E-03 8.581303568999E-01 3.510299484477E+00
 3.104951974326E-12 1.539335333138E-10 -3.198680790611E-11 0.000000000000E+00 0.000000000000E+00 0.000000000000E+00 -1.330034799635E-10 -3.145126693810E-12 -5.711899860460E-11 -1.433796112490E-03 1.289950528859E-03 -9.024217969279E-04 -1.235152273594E-03 1.195907767411E-03 1.892230932667E-03 -1.253782799695E-01 -4.472072848623E-02 -1.648948343813E-01 2.026260635934E-01 1.869037459123E+00 -3.205471776989E+00 3.857669317597E-03 -4.760647611544E-03 2.004113239968E-03 -1.826679198821E-03 -3.350685517697E-03 -4.106177657286E-04 3.725200459599E-01 -7.497074052770E-03 -7.434182584121E-02 -9.397041467335E-01 -2.084309410900E+00 3.607823719956E+00
 3.205723156189E-10 1.588582751270E-08 -3.300907688801E-09 0.000000000000E+00 0.000000000000E+00 0.000000000000E+00 -1.372599122139E-08 -3.244256396580E-10 -5.894519858897E-09 1.399845098753E-02 -2.738547216548E-03 6.676235035985E-03 -1.593954440963E-03 1.977741273148E-03 -7.113341155553E-04 1.685566739090E-03 -1.304475566247E-03 -2.540341561986E-03 -1.189352658861E-02 5.399865000653E-02 9.676510726029E-02 -2.094050617787E-01 6.446523250250E-02 -2.393908921806E-01 -1.949082833792E+00 5.022299731356E-02 3.578840746337E-01 -9.505746415205E-04 -1.085926658089E-03 -3.797895661238E-05 -4.205381769312E-03 -5.253906121604E-02 4.088182492735E-03 2.867845119959E+00
 7.860931654026E-10 3.895441366078E-08 -8.094317133268E-09 0.000000000000E+00 0.000000000000E+00 0.000000000000E+00 -3.365817149243E-08 -7.955414328136E-10 -1.445424258236E-08 8.214282790523E-03 -1.592205988296E-03 3.914411798682E-03 8.354245761501E-04 -8.006220659495E-04 -1.623910433989E-03 -1.113158806463E-04 -7.359944208270E-04 -2.372571070747E-04 4.503981836475E-02 -1.070662756695E+00 -1.703592596476E+00 4.242879876178E-02 -9.267074106182E-03 7.036272672797E-02 6.954259286298E-02 -2.345141556229E-03 -1.549531186515E-02 -8.723643709106E-04 -4.948455769306E-03 -1.102598138322E-03 -5.642562666602E-02 -2.024939172453E+00 2.114364882002E-02 -5.827754162525E-01 3.425258573157E+00
 -6.888925381380E-11 -3.413882315133E-09 7.093686177494E-10 0.000000000000E+00 0.000000000000E+00 0.000000000000E+00 2.949728957521E-09 6.971994970381E-11 1.266738637983E-09 4.190747718355E-03 -6.459952075071E-05 1.835124400823E-03 1.135075935478E-03 -1.515326054051E-03 4.932221486615E-04 -1.097582431910E-03 5.009480617013E-04 2.595744834648E-03 8.735343904715E-02 -1.709390061859E+00 -2.721220509763E+00 -2.371294895281E-01 8.088021479007E-02 -2.960677247715E-01 3.627036360683E-01 -1.275531529941E-02 -6.732239948445E-02 2.100887587067E-04 2.623744316491E-03 6.939599311940E-05 4.476753036964E-03 6.681170008425E-03 -2.613884101924E-05 -4.720968986024E-01 1.798840443890E+00 3.167738223625E+00
 0.000000000000E+00 2.239871232392E-12 0.000000000000E+00 0.000000000000E+00 0.000000000000E+00 0.000000000000E+00 -1.934944783982E-12 0.000000000000E+00 0.000000000000E+00 -1.826464176372E-04 1.624690513827E-04 -1.145550853812E-04 1.937589475826E-04 -7.011937794940E-05 2.370511311573E-04 -5.656577045339E-04 1.505097620514E-04 1.336298802087E-03 -2.960583982488E+00 2.129017012534E-02 1.771974869107E+00 -1.424718607426E-04 -3.478600212297E-04 9.224529199136E-04 -3.096653816025E-04 -1.395572231894E-04 3.316626141715E-05 5.332741225796E-06 1.279925143012E-04 2.774416010468E-05 2.937343013878E-03 -2.557220200190E-03 -1.330272157974E-03 2.338830318343E-03 1.782740379846E-03 -1.464889800030E-03 2.949665273312E+00
 0.000000000000E+00 -1.405265234121E-11 2.919928490751E-12 0.000000000000E+00 0.000000000000E+00 0.000000000000E+00 1.214145689737E-11 0.000000000000E+00 5.214181929264E-12 6.202084608571E-06 -9.463905213164E-06 4.744675211501E-06 -7.662435444814E-05 -8.840937870729E-06 -1.430305124551E-05 -1.501985348356E-03 1.698932038255E-03 2.050346840243E-03 1.929712815227E-02 -1.711431086138E-02 -1.119808209795E-02 1.870613513124E-03 1.659660212980E-03 -2.115977380454E-03 -3.710493364291E-06 5.709835709958E-05 9.396740590146E-06 -7.283225282490E-07 -5.549848623264E-05 -2.799749905358E-07 -3.861827375670E-03 1.869290315839E-03 -8.310292711734E-04 3.446828075669E-03 1.435931928684E-03 -2.432264179072E-04 -1.935455116538E-02 1.204790948454E-02
 0.000000000000E+00 2.027821643911E-12 0.000000000000E+00 0.000000000000E+00 0.000000000000E+00 0.000000000000E+00 -1.752743303053E-12 0.000000000000E+00 0.000000000000E+00 1.274381858125E-04 7.860065999322E-05 3.835797727222E-05 3.094579196067E-04 -3.422913695076E-05 1.630989851997E-04 -1.242556809425E-03 4.592361542642E-04 1.193965264789E-03 1.773743454931E+00 -1.191944964158E-02 -1.088132963663E+00 -1.165631344724E-03 -4.206970650318E-04 1.020365405484E-03 1.608290260182E-04 -1.491804421364E-04 -1.571954369123E-05 -4.320875809891E-05 1.282735711636E-04 -3.118066364621E-05 3.838457424851E-03 -7.481113840952E-04 8.682333441227E-04 2.813756751093E-03 1.090557852051E-03 5.323382890715E-04 -1.804865311623E+00 -3.480486078913E-02 2.714466317923E+00
 0.000000000000E+00 -8.786578774366E-12 1.825079644471E-12 0.000000000000E+00 0.000000000000E+00 0.000000000000E+00 7.589081829057E-12 0.000000000000E+00 3.257426442375E-12 5.124104736121E-04 4.297150016372E-04 1.296149452196E-04 -3.993668357032E-04 -4.248075881015E-05 8.959243003760E-04 1.506749617714E-04 1.001624789579E-03 -4.773796862920E-05 -3.142052117968E+00 1.381106416981E-01 -2.072889060398E+00 5.434094598897E-05 -2.153434891723E-03 -2.413685828934E-03 1.077392137004E-03 -7.218303485492E-04 4.072217600986E-03 9.854758863478E-05 -2.043936584197E-04 1.640547477335E-03 -1.377641436065E+00 -7.211845726835E-01 4.878163652121E-01 -7.087366215873E-01 4.723410983061E-01 2.517191169167E-01 6.643885521584E-03 1.786552222153E-04 2.632331429888E-02 5.220292290820E+00
 -1.139860373948E-12 -5.645315021021E-11 1.173038613189E-11 0.000000000000E+00 0.000000000000E+00 0.000000000000E+00 4.877746488147E-11 1.152638453283E-12 2.094738913541E-11 -6.070930358048E-04 -1.326956409077E-04 -2.350824413198E-04 1.402120892681E-04 -4.641664071578E-04 -1.778989760810E-04 -2.071458686717E-03 2.138463865146E-03 -1.573332640069E-03 1.392426719669E-01 -1.638487185206E-02 9.069051869963E-02 3.796293017461E-03 1.835646751786E-03 1.952255490954E-03 -7.796342861470E-04 7.652335716588E-04 1.678623734268E-03 4.238692211000E-04 1.179827412458E-03 -1.716295227035E-03 -7.176772259951E-01 -3.777139418147E-01 2.528026094496E-01 4.663319621766E-01 -3.114031201893E-01 -1.655579885705E-01 -1.044573847184E-03 -1.580708132940E-03 4.631986021947E-02 1.122449773319E-01 7.017603324912E-01
 1.955477636068E-12 9.693247284763E-11 -2.014191826572E-11 0.000000000000E+00 0.000000000000E+00 0.000000000000E+00 -8.375367306251E-11 -1.980578239284E-12 -3.596923411073E-11 3.029437220066E-04 2.750419836376E-04 7.208470671121E-05 2.264189735931E-04 6.614375353774E-05 4.653143474915E-04 9.973836783122E-04 -3.753179204878E-04 4.382610358395E-04 -2.065895632137E+00 9.284092945644E-02 -1.355253310395E+00 9.705804425442E-04 -1.255005604295E-03 -7.003063139074E-04 7.299927834205E-04 3.257683212941E-03 8.251033246769E-04 3.587042295814E-04 -3.292186516681E-03 1.119603805685E-03 4.797626802251E-01 2.588228031119E-01 -1.665406817679E-01 2.465500984388E-01 -1.733000925190E-01 -8.862727840799E-02 3.324344628666E-02 4.714327071867E-02 -1.630102813317E+00 1.302753383439E+00 -2.241832697716E-01 3.238304023037E+00

