#BIOSYM hessian 1
@Type: Hessian Update
@Units
 distance: 	A
 energy: 	Kcal/Mol
#header
@natom 18

#label
L1      L2      L3      L4      L5      L6      L7      L8      L9      L10     L11     L12     L13     L14     L15     L16     L17     L18

#element
Li Li Li Li Li Li Li Li Li Li Li Li Li Li Li Li Li Li

#matrix
54
 1.712892669859E+01
 1.498325671954E-01 4.209460674952E+01
 5.812244617045E+00 -4.596738850686E+01 1.033130242305E+02
 -1.994490369470E+00 -4.560425741213E+00 2.011276004902E+00 2.764947540451E+01
 -4.379767043502E+00 -6.141821998165E+00 1.038834112785E+00 5.781853939393E+00 1.211007727311E+01
 1.072558774366E+00 3.633594338821E+00 -4.821329553480E+00 5.130424238199E+00 2.021706722613E+00 1.570166076116E+01
 1.701206138873E+00 -4.669034898792E-01 1.186682563759E+00 -4.606073357773E+00 3.220105027206E+00 -3.566742983504E+00 2.705704533849E+01
 1.333291963394E+00 -4.462803047584E+00 3.891748500946E+00 3.265179071421E+00 -7.352676024880E+00 -1.623903043492E+00 -6.629340671925E+00 4.016175935225E+01
 1.196231374044E+00 -2.208659860652E-01 8.280727226582E-01 -1.656351586439E+00 -6.649682375684E-01 -5.968380363383E+00 3.492633621927E+00 8.584977577460E+00 2.202630875818E+01
 2.011546001948E-01 -1.709875434638E-01 -1.300871009551E+00 5.465346312259E+00 -1.531643473493E-01 1.974352700620E+00 -1.037053521533E+01 3.261254843361E+00 5.153518802657E+00 4.863498060378E+01
 6.552696911479E-01 1.768987185864E+00 -4.057365271262E-02 -3.000724067770E-01 -2.329593653267E+00 6.905569224125E-01 2.262616554705E-01 -1.891256588293E+00 -3.994987652155E+00 1.894617449299E+01 3.221603017544E+01
 6.121597915280E-01 1.389056424350E+01 -3.504360539832E+01 1.102167832603E+00 -2.542264026471E+00 -2.106145248417E+00 -1.212834569635E-02 4.316152078487E+00 -6.106789804095E-01 -4.524349946695E+00 -3.540275630115E+00 1.417821647326E+02
 -7.730090285857E+00 -2.550949646786E+00 -4.643960689712E+00 -3.673852901340E-01 -6.103977201246E-01 -9.587693654445E-02 3.589256024378E-01 6.668441565923E-01 2.006027216466E+00 -2.297162856231E+00 -3.134263281495E+00 -2.529433143759E+00 3.027675948969E+01
 -1.361096378335E+00 -1.386779433003E+00 -2.272800009787E+00 2.945047593386E+00 1.406635959374E-01 2.339289769980E+00 -4.550544704291E-02 3.390107741364E+00 -2.427216753588E+00 -9.366804618620E-01 1.732948970015E-01 -2.327714834865E+00 1.607300321768E+00 1.656006812298E+01
 -8.122939503254E+00 -3.626955591816E+00 -4.601019996704E+00 2.252570035608E+00 9.713995780339E-01 4.795213201463E-01 -2.162847082092E+00 -6.921550647868E-01 -1.677963475839E+00 1.725235405501E+00 1.986263092685E+00 2.313620037718E+00 1.208709624665E+00 3.324767225994E+00 3.830837269077E+01
 -6.285191344878E-01 -2.548126678354E+00 6.875801587152E+00 1.650983576824E+00 -2.352180958980E-01 -9.205267906613E-01 -1.724732594059E+00 2.937367152169E+00 -3.147299158615E-01 -4.563441632845E+00 -3.272608244212E+00 4.836296238528E+00 1.439971946543E+00 -1.456232273278E+00 -1.281385678946E+00 1.546568042208E+01
 -1.028857254163E+00 -2.110741032754E+00 1.418892600924E-01 3.411806938971E-01 4.109864074562E-01 -3.852700906527E-01 4.362167343929E-01 2.911774391487E+00 2.930703000051E-01 -4.368182854081E+00 -2.096877151768E+00 2.988117045054E+00 -2.182463232641E+00 -4.195197205017E+00 1.588948544715E+00 -3.594154132132E-02 2.601602926015E+01
 5.131758775956E+00 -1.736371993152E+01 2.662267748515E+01 3.088206613314E+00 -1.489947166261E-01 2.869701321924E+00 -5.939939371301E+00 3.914751778751E+00 1.819345071094E+00 1.775054756403E+00 -2.795817728381E+00 -4.834190077286E+00 -7.795420804504E+00 -2.439924008589E+00 -2.051615978533E+00 5.331289556443E+00 2.179364568988E+01 1.446975615367E+02
 -3.238690563509E+00 1.134612839817E+00 -3.218879082538E+00 -6.910140685279E-01 6.576154431610E-01 2.340069201249E+00 1.743549491130E+00 6.657543090619E-01 -3.813867296217E+00 -8.040807522298E-01 -6.361065668813E-01 -1.025596072470E-01 4.662622455922E+00 -1.457457811014E+00 3.886310735877E-01 -4.169768902502E+00 2.406986584314E-01 -2.737962665876E+00 3.689822613600E+01
 9.219939188150E-01 -1.549220347035E-01 -1.415301891502E+00 -1.648051837920E-01 -6.903849122942E-01 -1.099322366254E-01 4.493946560025E-01 1.398242109109E-01 1.187810544625E+00 1.920887313028E-01 -4.361651340953E-01 7.313812857484E-01 -2.017162035511E+00 9.465250318524E-01 -7.518001883273E-02 -4.130340319594E+00 -5.780394311275E+00 4.795098286082E-01 7.869064861753E+00 1.208255358860E+01
 -1.905677862893E+00 1.092957422207E+00 -1.165140335309E+00 -1.444022078524E+00 1.685740464418E+00 6.503749564313E-01 -5.135126080518E-01 -2.834852459957E+00 1.194010065893E-01 -4.119402597567E-01 1.240479007751E+00 5.873851565140E-01 -1.929040354428E+00 4.233929135980E-01 1.773785263844E+00 -3.046877196235E+00 -1.845191700784E+00 6.652820941117E+00 -3.628672424483E+00 -9.589456569364E-01 1.747186804815E+01
 -1.451266042223E+00 -5.796787513189E+00 1.084368568945E+01 7.038271658535E-01 -8.700866581230E-02 -6.650530015481E-01 -4.688104686382E-01 6.528884649547E-01 1.405736167063E+00 1.876529298613E+00 3.242736217781E+00 -5.658766072716E+00 -2.349770763368E+00 2.161900886086E-01 7.385173456837E+00 -3.538269144023E+00 2.270443469393E+00 -2.059655521357E+01 -5.452253792840E+00 -1.145642770905E+00 -2.030538734660E+00 2.431237966120E+01
 2.050441489515E+00 2.719126831787E+00 -4.125666596288E+00 -1.484134320814E+00 -2.735179801208E+00 1.247687591894E+00 -2.732023249660E-01 -1.235955245812E+00 -7.854201799897E-01 -2.575803553930E+00 -3.322143899790E+00 2.974416456685E+00 6.563508983456E+00 -3.159692449526E+00 -6.780966074796E+00 3.803757677732E+00 -5.621090136476E+00 1.415745035180E+01 -1.393358542247E+00 1.769685363857E+00 4.009956183559E-01 -1.511291952667E+01 2.495675704379E+01
 -5.167231224223E+00 -4.112102168551E+00 2.070479583746E+01 5.312333336596E+00 3.910583130015E+00 -4.976487808314E+00 5.518015984797E+00 1.005577101391E+00 3.590355075681E+00 1.342348245008E+00 4.329163430398E+00 -2.015840958771E+01 4.469198169334E+00 -1.537783797710E+00 -3.154089028321E+00 -8.938948230517E+00 -5.419231636862E+00 -7.987759834105E+01 -7.135376132857E-01 -5.039569621608E+00 -1.135404048345E+01 3.680785606780E+01 -3.584198497385E+01 1.540286338636E+02
 -8.502733164107E+00 9.954311758791E+00 9.303666378446E+00 -2.241514706853E+01 1.146048964285E+00 4.192849591712E+00 -1.560001280763E+00 -3.553736641748E+00 8.357843977081E-01 -3.289988611461E+00 4.688418300747E+00 -1.590993797332E+01 -5.837314937235E+00 -4.882120011865E+00 -8.677206669123E+00 -3.126418708094E-01 2.537070042336E+00 1.216711163397E+01 1.464813450055E+00 -2.193238567155E+00 3.804343838595E+00 -9.024864742353E+00 1.587950605311E+00 -1.841820741942E+01 1.320468480547E+02
 8.648099003972E+00 -3.826020307784E+00 -2.825306445108E+01 -1.657578136049E+00 -5.271586308467E-01 -3.769511292091E-01 9.138970807277E-01 6.329964803782E-02 1.992690096623E+00 3.969639984747E+00 -7.815646069839E+00 6.715113515890E+00 5.957288982002E-01 8.674031682856E-01 -6.827703037033E-01 -2.275149787983E+00 -2.825660543834E-01 -1.041484734758E+01 -9.004557188129E-02 1.304412362189E+00 -1.918978319236E+00 -3.941546712721E+00 1.518443007328E+00 -1.497674832126E+01 -4.800581390951E+01 6.529055058590E+01
 2.674362286740E+00 3.582058830997E+01 -7.222418620588E+01 -6.459315499476E+00 2.558849847519E-01 6.914527292622E+00 4.150648601883E+00 -8.285656093497E+00 -4.361254668514E+00 -2.799083615995E+00 2.921555619708E+00 -1.083402569920E+01 -1.291290640440E+00 -1.724133689733E+00 -1.235975366979E+01 -3.320236655416E+00 -2.056320028217E+00 -2.431134162643E+01 2.999641976334E+00 2.714354523104E+00 1.302936751395E+00 -2.363112104555E+01 1.588112498522E+01 -6.359900561774E+01 2.348998957861E+01 3.663336178722E+01 1.593408072363E+02
 2.358431373952E+00 4.236467718332E+00 -9.949353187725E+00 -2.576173323746E+00 5.559513091219E-01 -1.345537234859E+00 3.271837360508E+00 -2.610749022753E+00 9.188253373909E-01 -5.772986563023E+00 -5.143946087215E+00 -1.203270224355E+01 6.349615356549E-01 9.666843427087E+00 5.903825627243E-01 -2.354527971815E+00 1.831628797957E+00 1.599444154690E+01 -2.767282484725E+01 -1.879710182979E+00 3.670460998452E+00 -7.821854293803E+00 1.118623238615E+01 -1.952501185742E+01 -1.615855475468E+01 -8.892528330347E-01 1.051871314431E+01 9.062624976952E+01
 2.718956879563E+00 -8.133678167265E+00 1.538573183575E+01 -8.726683989267E-01 8.333647903110E-01 -1.182291868209E+00 -2.190315562088E+00 5.366648637286E+00 7.611872349089E+00 9.506758610382E-01 -1.318534993595E+01 1.304169563991E+01 8.004112503376E+00 -8.074132262092E-01 -3.350886926315E+00 7.935543826407E+00 -1.646005623287E+01 -1.616896275728E+01 -7.864199552466E+00 -1.720308556237E+00 4.670484651658E+00 2.673088413547E+00 -1.260793088870E+01 1.065026833234E+01 5.987131372531E+00 -2.349976898215E+00 3.756038930908E+00 -2.833655683515E+01 1.437924271740E+02
 1.258854568142E+00 -1.741867215425E+00 -2.839908098500E+00 -4.383605254317E+00 -2.577890617492E+00 1.274666018522E+00 -1.934202509232E+00 3.664678532671E-01 -3.731361059043E+00 -3.185881341361E+00 -1.335603192642E+00 -1.265537460487E+01 6.130489505982E+00 -4.338373374463E-01 -2.850174126495E+00 8.686726241497E+00 -8.322631745180E+00 -3.850179103288E+00 6.199741187796E+00 9.864842906991E-01 6.961213399839E-01 -1.221110124151E+01 1.686949797755E+01 -3.836772280443E+01 -7.149144800636E+00 1.120280325382E+01 1.530278176625E+01 4.203468706368E-01 -1.107385631530E+01 7.601017783467E+01
 -4.320754361318E-01 -2.407010148377E+00 8.610611138205E-01 -1.840448615716E+00 1.907873890859E+00 -1.283671980637E+00 4.470054319163E-01 -1.439037600313E-01 2.137441947932E+00 3.487230441115E-02 1.549062729565E+00 4.646564191249E-01 2.058682782500E-01 -8.887768956845E-01 1.128972568899E+00 -3.573138105699E-02 4.413768143482E-01 5.016825479707E-01 2.539409135714E+00 1.281737471929E-02 1.448355011067E+00 -7.530630709147E-01 3.563338312354E-01 -4.259930543682E+00 1.816632252504E+00 3.217410146945E+00 -2.151840961569E-01 -4.903390338849E+00 -2.658120565201E+00 1.582455811358E+00 1.514770949747E+01
 7.537443617649E-02 1.201611502082E+00 -4.132969355866E+00 3.259502016730E-03 -8.945805678223E-01 -7.097338206099E-02 2.937089303583E-01 1.333421169137E+00 -8.123304734479E-01 -1.730689325846E+00 -1.577869865647E+00 7.832270356004E+00 1.805690599376E+00 -1.838705844936E+00 1.874252043249E+00 -5.094538902582E-02 7.297310512758E-01 5.656380406006E+00 -1.937567573665E-01 2.118100048442E+00 3.091825922161E-01 -2.828594124993E+00 1.291475723496E+00 -1.066979915201E+01 3.301637737581E+00 1.115516947336E+00 5.645683743615E+00 -1.002001413997E+00 2.090446321786E+00 3.184338742891E+00 1.272069209874E+00 3.777240512177E+01
 1.722604281161E+00 -2.489300382616E+00 3.233651182597E+00 -8.330551653790E-01 -1.177002067023E+00 1.937589076066E-01 -1.686366766675E+00 2.837266866931E+00 3.280386562238E-01 -2.338319394185E-01 -1.880680473095E+00 -1.174290410697E+00 5.209643738153E-01 2.150516782215E+00 -9.110552036254E+00 -6.264486372159E-01 -1.397945819391E-01 -1.285917353588E+00 7.226992870673E-01 -4.333932941879E-01 -6.396376677912E-01 1.601309277868E+00 -1.771199393219E+00 7.304459848617E-01 7.044046846906E-01 1.755586709374E+00 -4.130924656779E+00 -5.877374647914E-01 -2.093702061788E-01 2.924481948211E+00 1.477765302602E+00 4.959179794432E-01 2.051111818899E+01
 9.086267325199E-01 5.553995677979E+00 -9.638447308384E+00 1.661670916974E+00 -8.905637373961E-01 2.882895745393E+00 -5.812527978677E-02 -9.024488224370E-01 -1.542097099422E+00 4.212026400774E-01 4.778684901848E+00 5.437327776264E+00 -1.263547229403E+01 -1.008043968989E+00 -5.319261819099E+00 -9.718107539250E-01 3.410949247694E+00 1.194362015108E+01 -2.908455232725E+00 1.407168651050E+00 2.460540515314E+00 -3.848192996736E+00 3.137970534227E+00 -1.334855033137E+01 6.613782304161E+00 -2.381376075615E-01 1.009637829761E+01 4.436010213998E+00 -2.927559699384E+01 -3.320042236771E+00 3.815821316297E-01 -4.129287568327E-01 -3.970192105972E+00 2.255328772311E+01
 -3.034134400309E+00 3.308020780539E+00 6.616010588769E-01 -1.691947102041E+00 1.742336149643E+00 -6.615946343250E-01 2.598151344730E+00 -9.233729893533E-01 -4.343162566077E-01 4.134735820132E+00 5.826644297288E+00 -3.248883219437E+00 -1.730001333202E+00 -3.284776337212E+00 1.582282489951E+00 -4.678903093216E+00 3.400340218096E+00 -2.323449833977E+01 1.702260567524E+00 -7.528048986454E+00 -4.577788970040E+00 1.562107868516E+01 -6.934449695455E+00 4.333978134151E+01 6.395067319103E-02 -9.519325068333E+00 -2.512102260766E+01 -1.161042557162E+01 -3.716551264316E+01 -1.224155124795E+01 1.068401505698E+00 -1.369243601740E+00 3.759466390172E+00 4.176587210344E+00 5.038471166452E+01
 2.999472845396E+00 7.250395142951E+00 -2.160527310441E+01 -1.662546584456E+00 -2.304548447525E+00 1.092540534766E+00 -1.276092185484E+00 -1.756770778272E+00 -4.081657912219E+00 7.185557288528E-01 -2.211950566835E+00 2.419312560112E+01 -5.755027008719E+00 -3.111523181796E+00 -1.146231662602E+01 4.876329112713E+00 3.238641652514E+00 4.167659521172E+01 3.120038567245E+00 3.443144893227E+00 -1.871694706467E+00 -2.307668607070E+01 2.060095332630E+01 -6.587397195472E+01 6.630338165487E+00 7.855610988043E+00 3.333707233843E+01 8.511650263126E+00 -4.569097801462E+01 2.353794380457E+00 2.723383918837E+00 7.679474529208E+00 -1.309303867010E+00 2.315291214708E+01 -6.629786175148E+00 8.148613746806E+01
 -2.808962973514E+00 -1.983548562700E+00 7.090071478332E+00 -1.441242588448E+00 -4.880953553105E-01 -1.250205166901E+00 -4.997410496161E-01 4.094732748114E-01 1.111626085377E+00 -2.704751432957E+01 -1.881867681444E+01 -1.930852908140E+00 5.373943734123E+00 4.459645437691E-01 -9.324353635540E-01 2.542659298792E-01 -3.722505902801E+00 -1.175791166058E+01 -1.211287739500E+00 -2.503482294885E+00 2.140630001896E+00 3.550043004938E+00 -6.010126079179E+00 9.631390105558E+00 3.595767568194E+00 -2.316109170620E+00 1.375936882406E+00 -2.250848259600E+01 6.033927270264E+01 -1.069825021916E+01 1.207160975781E+00 4.818290780629E-01 7.358210041528E-01 -1.246914861663E+01 -9.333860831962E+00 -2.405129437677E+01 7.098304698724E+01
 -1.010338921096E+00 3.303165370650E+00 -8.121330951387E+00 2.016742931449E-01 2.144420996774E+00 7.400497314658E-01 6.364093858269E-01 -5.742957188040E+00 -2.322308950680E+00 -1.931878764414E+01 -6.609200843548E+00 -2.033925195727E+01 1.994250288373E+00 3.459213827794E-01 -6.982137207405E-01 -8.592670665054E-01 4.364416437579E+00 4.799659602755E+00 1.841430306668E+00 -4.271715110172E-02 -2.531127734478E-01 -3.184959407016E+00 6.110693662565E+00 -7.208986346861E+00 -5.040241066099E+00 5.163651217030E+00 6.777955328727E+00 3.164905142586E+01 -6.574951515465E+01 1.845422975704E+01 3.158900967169E-02 -2.638697520142E+00 -2.744071790329E-02 1.243536897350E+01 2.182789638632E+00 1.920936588412E+01 -2.155239679311E+01 6.492960957636E+01
 -1.127849344637E+00 1.332716883776E+01 -1.815976830591E+01 -9.894664671562E-02 -1.227148093745E+00 -9.467990173996E-01 3.723586967464E+00 -4.980075757885E-01 1.037596065292E+00 -1.145617535822E+01 -7.849764409186E+00 3.291949758822E+00 5.177183359779E+00 4.134900070562E+00 1.813564681563E+00 -1.258657868684E+01 -1.398273017361E+01 -1.061380023841E+02 2.179943169907E+00 2.464600664402E+00 -1.106411787784E+01 1.756587895208E+01 -1.405388654785E+01 6.888068805458E+01 -1.011372342911E+01 1.036733003062E+01 2.051588896813E+01 -2.633660762733E+01 4.564763077040E+01 -1.986564399777E+01 -7.890167370248E-01 -4.939986592551E+00 -2.419787658040E+00 -1.608768744508E+01 1.303085740742E+01 -4.858991811298E+01 4.495333190745E+01 -2.794994267904E+01 1.285023211014E+02
 9.817757782944E-01 2.298394027168E+00 -3.467023155466E+00 -3.116584104864E-01 -2.378842395541E+00 2.757268972646E-01 -3.995274864235E+00 3.505016075260E+00 -4.344988863868E+00 -3.159947557218E+00 -1.939823940571E+00 1.536672575035E+01 -3.570682492625E+00 -6.821573198242E-01 1.211342593073E+00 8.846333355259E-01 8.777380205998E-01 2.346981357726E+00 -7.807152286174E-01 -1.960891066985E+00 9.937586168296E-01 -1.598253767475E+00 -7.934485074448E-01 -3.676006960433E+00 -1.403459133580E+00 5.271043447465E-01 -2.227466976300E+00 2.227025326899E-01 4.304565463223E+00 -2.405736757081E+00 6.124691963127E-01 1.882213766417E+00 3.029318246015E-01 1.915592626170E-01 -2.044468123192E+00 3.784738389171E+00 -2.398096154717E+00 -3.125177017221E+00 2.130374087146E+00 1.887434051400E+01
 1.799176585223E+00 1.432003449732E-01 -1.271434651005E+00 -5.556212949363E-01 1.342129393366E+00 1.350557105257E-01 -4.553593412299E-02 -2.902730802549E+00 2.149920246477E+00 8.741353598354E-02 -2.294989468088E+00 2.555867296278E+00 -1.952589094529E+00 -8.179883486321E-01 -2.018406942563E+00 -6.890913483122E-01 2.336819349085E-01 -5.096070266852E+00 -1.875907739224E+00 3.643353437249E-01 -5.502376029457E-01 2.129367298783E+00 -3.096459791283E-01 4.048670428367E+00 4.568644334331E+00 1.850408227333E+00 2.149265401192E+00 3.054317201094E-01 1.949827478736E+00 -3.842290562490E+00 -1.971190122308E+00 -2.342586392037E+00 2.005530504517E+00 4.475125838837E+00 2.164468061062E+00 -1.949046836375E+00 1.092940820954E-01 -3.854682537241E+00 3.298071566063E+00 -1.797522917529E+00 2.882587616242E+01
 9.788296070746E-02 -1.326686573277E+01 3.031125937345E+01 -1.201865501958E+00 2.987405178245E+00 5.313179167285E-01 2.460005071274E+00 -5.398840937315E+00 -4.397538837533E+00 1.510837848101E+01 9.458499181457E+00 -1.228140024417E+02 3.923823100962E+00 1.251198712110E+00 -6.327194042179E-01 4.044861969262E-02 1.221140753944E+00 -3.906417524016E+00 2.063080201320E-01 -9.774077516103E-01 -7.246064616302E-01 5.967632579760E+00 -4.215008502176E+00 1.927275419724E+01 3.426404465699E+00 3.523589692165E+00 1.230945666980E+01 7.156849403536E+00 -9.779363342525E+00 1.245358912230E+01 -9.417623591870E-01 -6.474472307562E+00 1.890304585789E+00 -7.664510544174E+00 -1.426789226763E+00 -2.333443133997E+01 -1.174187612618E+01 1.223070325918E+01 -1.124240588518E+01 -1.277668919355E+01 -3.515558682805E+00 1.401066912980E+02
 9.266726339371E-01 -2.293936521648E+00 3.656276332294E+00 -1.066102913643E+00 1.473685293773E+00 -8.506713775419E-01 -1.100658830378E+00 -2.401827377446E+00 7.895281159125E-01 1.732775369109E+00 2.715442295239E+00 -2.522782289049E+00 -1.121082692772E+00 3.787436565949E+00 -6.873955746615E-02 -1.426536166966E+00 8.893246175867E-01 3.099958073125E+00 1.503965179487E+00 -2.146687521557E-01 1.215777513791E+00 -8.015884508296E-01 -9.758384489007E-02 -1.935423528520E+00 4.400320552686E-01 1.340421381905E+00 -1.665897959735E+00 -2.745649822745E+00 -5.044803398467E+00 -1.644774227368E+00 -2.774065975540E+00 -7.680215748369E+00 1.570598205718E+00 -3.788611687266E+00 -3.354377843629E+00 3.284399222791E+00 -4.947712483884E-01 7.242908859210E-01 -2.726852379510E+00 -3.260973376149E+00 1.780999774999E+00 2.511749723925E+00 1.882498657416E+01
 -8.291875674734E-01 7.968273129804E-01 -1.352669916751E+00 1.312345222457E+00 1.930947026536E-01 6.479950840054E-01 -6.841690324485E-01 -1.749872567290E+00 -4.170446202163E+00 1.770672475965E+00 9.302475577082E-01 6.882065520785E-01 -1.814821022296E+00 9.550372694012E-01 -7.884494804557E-02 -3.213896072462E-02 1.069814237848E-01 1.387152682835E+00 3.230847220330E-01 -2.055553424078E+00 1.013877283084E-01 -9.268549729450E-01 -1.903451383806E-01 -1.966648290543E+00 -8.430654325213E-01 -1.296514299181E+00 8.275886997285E-01 6.993232151043E-01 -2.439100568922E+00 1.711075131486E+00 -5.251664065114E+00 -1.135007805702E+01 2.252357724182E+00 -3.068714458517E+00 4.338788946373E-01 3.894851099918E+00 -1.577446407551E+00 2.203527161934E+00 -3.658120062509E+00 5.821890456416E+00 -3.523733968799E+00 -1.382216928383E+00 9.617024950342E+00 2.006722727680E+01
 -1.203669174078E+00 5.405671258860E-01 -1.360737804720E+00 -6.647434830813E-02 -1.532077517915E+00 -2.360180087538E-01 7.099640924214E-01 8.091945847083E-01 -7.238009425018E+00 -1.330456546205E+00 -1.327075187215E+00 7.058491444110E-01 3.321130026961E+00 -1.913140005709E+00 1.888876384543E-01 5.515022000153E-01 -2.017969596665E-01 -4.362673287496E+00 -1.558769689333E+00 9.260637231121E-03 3.450161351172E-01 8.965433057661E-01 -1.537653431737E+00 2.366034175305E+00 1.303379992185E-01 4.193021410583E-01 -6.199717716977E-01 2.101427964426E+00 1.269046490301E+00 1.871814429888E+00 1.890412895095E+00 -6.791795095998E-01 -3.565358063458E-01 1.743247176737E+00 4.218148440244E+00 -2.734361536656E+00 -2.058154795303E+00 5.223656560873E-01 -3.884695011551E-01 9.246400653884E-01 -1.186665209513E+00 -2.278469409011E+00 -1.379761094578E+01 -8.264202496328E-01 2.552821591111E+01
 -1.916373474021E+00 2.300408571112E+00 -3.220645209221E+00 8.426043458586E-01 5.538428172543E-01 -9.623451468915E-01 6.021897466924E-01 3.660956794814E-01 -2.163667478892E+00 -1.295885702345E-01 -2.580853659509E+00 2.139841674726E-01 8.870260517004E-01 -2.542195825064E+00 -4.689730037935E-01 1.080109135569E+00 -1.371719829280E+00 -1.993205679539E+00 3.937929650328E-01 8.614749583072E-01 -8.590411885343E-02 -1.020332762384E+00 2.472632380856E+00 1.161827852647E+00 -9.637676426309E-01 -2.413162971246E+00 3.782124651708E+00 -8.128880455116E-01 2.533661223693E-01 1.860906608110E+00 -6.922422115327E+00 7.267080855293E+00 -3.148828957733E+00 1.651982882460E+00 -8.301371242787E-01 2.850901125381E+00 -1.783371195412E+00 1.257136751576E+00 2.474757234138E+00 -3.550266198758E+00 -2.338406030063E+00 2.593034314657E-01 -4.040445089191E-01 -4.374306025595E+00 -1.534167952080E+00 2.015986292465E+01
 4.574681775199E-01 -1.555675666730E+00 2.610076349165E+00 -8.122993368680E-01 -1.430995203315E+00 1.016757813662E-01 -1.772349155055E+00 -9.818007065643E-01 -1.716180063932E+00 -6.399399930259E-01 -2.201875946634E-01 1.853322116291E-02 6.193103463130E-01 -1.083832429777E+00 8.650012185310E-01 6.837821241095E-01 -1.076623642405E+00 8.488055965874E-01 2.978485621816E+00 4.028721216392E-01 1.363552258421E+00 -3.120241594980E+00 2.500191730894E+00 -3.318796319510E+00 3.422268997069E-01 8.154760824309E-01 7.457793235540E-01 1.927985247808E-01 -3.114579156697E+00 -1.053639374709E-01 5.900947614054E+00 -5.171901873905E+00 1.062306279451E+00 -1.814576928382E+00 -4.340271473529E+00 6.004891587444E+00 -5.449701924997E-01 5.434894812785E-01 -3.098021069671E+00 -5.457051124445E+00 -6.753790015406E+00 -5.417610506185E+00 1.454556550020E+00 -4.970417159449E+00 5.604533101937E-01 8.133795805148E-01 2.133942767859E+01
 1.000291022809E-02 -8.948377007462E-01 -5.087090960162E-03 2.347992756669E-02 1.134681663443E+00 -6.266113406074E-01 1.365374570198E+00 -1.155735359732E-01 -1.174236659238E+00 4.969806453573E-01 4.843613183776E-01 2.793240732531E+00 -1.562245563069E+00 -3.536461758675E-02 2.151143991952E+00 -8.447267659864E-03 -4.534197653679E-01 6.927186838127E+00 5.254492809751E-01 3.599506960445E-01 3.714752195076E-01 -1.819448352447E+00 2.809196345402E+00 -1.167846420897E+01 -1.836431585379E+00 -3.169919217404E-01 2.902777478745E+00 1.812491316771E+00 -1.668343574701E+00 1.993270995743E+00 -2.820621680777E+00 3.076941112232E+00 -3.445314921204E+00 1.582725439812E+00 -1.210660253446E+00 2.189976743635E+00 9.828042000395E-02 -4.316849530624E-01 -6.841182219207E+00 -9.352641787995E-01 -3.352836688889E+00 -6.061996540690E+00 2.109515352426E+00 -4.120392827440E-01 1.106002416756E+00 8.757575947541E+00 1.023213612448E+00 2.299122067057E+01
 1.075524987685E+00 -1.713939236729E+01 2.772235441328E+01 2.813795232619E+00 -2.608389191981E+00 -3.917731064037E+00 -9.209346587984E+00 2.251014276452E+00 -3.222385951530E+00 -8.543949640685E-02 -1.132591921539E+00 1.097335032433E+01 5.150989872420E-02 1.604747013008E+00 8.561002879788E+00 4.006166737524E+00 -1.796249343041E+00 2.539630531765E+00 -1.363012016632E+00 4.551232990868E-01 8.184525305003E-01 1.207254965360E+01 -6.554072937238E+00 3.015127457023E+01 -3.654359661878E+01 -9.799500207863E-01 -7.203904233518E+01 -1.694070818046E+01 -9.021901914594E+00 1.270050214384E+01 5.376119297333E-01 -7.540256315221E-01 2.427304059591E+00 -4.532534089501E+00 1.644827944354E+01 -1.486049489390E+01 -9.945637714223E+00 -1.898389922980E+00 -9.572409121579E+00 1.836417164324E+00 -1.982718350144E+00 -5.431796362371E+00 -5.493518558562E+00 -3.564498085322E+00 9.319464201325E+00 -7.730060950751E+00 -6.822412332450E-01 -9.514501727885E+00 8.018617451218E+01
 -1.449427148169E+00 4.831232446801E-01 4.981755783518E-01 1.990328854585E-01 2.185632212179E+00 -5.254930350326E-01 -8.891723441873E-02 -8.061244691880E+00 -2.865406235054E+00 -3.365783653538E+00 -1.410695283585E+00 -2.353668855567E+00 1.802246487024E+00 1.846869015835E+00 3.163330236888E+00 1.151559995549E-01 -1.594043035583E+00 -1.899902666178E+00 -1.211967558876E+00 4.286213453495E-01 2.068042377556E+00 1.434278750580E+00 -1.506302409731E+00 4.647101388237E+00 -1.707722660372E+01 2.436994253046E+00 -7.638058198350E+00 -1.213546397113E+00 2.881895939175E+00 -8.678625954358E-01 2.230659042942E+00 -1.680899807296E+01 -7.633992815170E+00 -6.218130476605E-01 -3.742036472034E+00 -3.799147138503E+00 3.158313837743E+00 7.199413466051E-01 6.777745702422E+00 1.745474162838E+00 -1.289661485255E+01 8.138511358604E+00 -6.610551795755E-01 6.965139872691E-01 2.635344285313E+00 -2.396433945199E+00 1.578306206874E+00 -9.233189691573E-01 1.155422791867E+01 3.765759937293E+01
 -1.556722272091E+00 -1.675827363322E+01 2.703858929851E+01 2.499108893282E+00 7.540543113131E-01 -6.978230581027E+00 -3.427520885245E+00 -1.489445181734E+00 2.476240984149E+00 -6.688604423017E+00 2.799165067306E-01 8.699062503063E+00 -6.916020075446E-01 4.590858471498E+00 7.885665845822E+00 2.017173866094E+00 1.370712884702E+00 2.072306442075E+00 -3.092712235856E+00 -3.093197567785E+00 -3.308401573988E+00 1.364515529560E+01 -8.788320667248E+00 4.494725466369E+01 -5.731423859429E+01 3.072952232653E+00 -8.522610593251E+01 1.310560950619E+01 -5.093470115832E+00 -2.144653863055E+01 1.176434120809E-01 -1.297951336602E+01 5.955678336732E-01 -7.395293871763E+00 6.995120979471E+00 -2.519718684562E+01 1.927588896097E+00 6.094194524418E+00 3.359886825390E+00 9.889139577130E-02 3.763329310454E+00 -1.209116037349E+01 1.128522132627E+01 2.218302057156E+00 -1.245656130421E+01 -8.289291656187E+00 6.440349794301E-01 -1.311179771326E+01 4.353088991652E+01 9.686488183899E+00 1.262489674113E+02
 3.420882499278E+00 1.429004505251E+01 -3.992394053588E+01 -3.477966948419E+00 -3.465530132138E+00 -3.010515465680E+00 -1.588459581490E+00 -3.072172970619E+00 -1.989264874249E+00 -8.461755438943E-01 1.568926378529E-01 6.216844229967E+00 -7.982627380798E+00 -5.013263160619E+00 2.581768476645E+00 -5.055831531460E+00 1.229292860692E+00 -1.309874014929E+01 -9.142756690068E-01 4.040814722923E+00 -1.556133388561E+00 -4.386808488619E+00 3.135821748887E+00 -1.841139662310E+01 -3.996580585998E+01 4.359444588015E+01 5.456084340464E+01 8.717847951561E+00 -7.902549923956E+00 8.092715650080E+00 -5.269124200190E+00 -1.729706967204E+00 -6.999412640845E-01 2.392646143047E+00 -7.505189826866E+00 8.029421633949E+00 -2.355971994134E+00 5.218356517618E+00 1.269079109807E+01 4.254294001010E-01 -2.046870339193E+00 -1.400285770744E+00 1.049172420192E+00 3.422524988192E+00 -3.936647626449E-02 -3.844525880150E-01 1.400714119665E+00 1.715084545138E+00 -1.073589590309E+01 5.846781683451E+00 2.287034380898E-01 6.695741727492E+01
 -5.717095999473E+00 -2.804622763509E+01 7.272514328728E+01 -1.950021279756E+00 9.996852703664E-01 -6.621202233476E+00 3.422094037232E+00 -1.806216529823E+01 -1.405894123029E+00 -5.263636828379E-02 2.274771375228E+00 -2.140025916708E+01 -7.666345217894E+00 -8.651504951124E+00 2.648135161552E+00 4.788356018451E+00 1.043647677802E+00 2.652538182555E+01 -2.690207230310E+00 -1.148434906327E+00 -4.171075511429E-01 7.904483900417E+00 -3.243637719510E+00 1.816050547651E+01 4.741805154381E+01 -5.480894817034E+01 -6.930399102025E+01 -7.637540180645E+00 6.818811087631E+00 -1.023214223991E+01 -4.667875613195E+00 -3.660046089113E+00 -5.567753049535E-01 -1.143026713868E+00 5.363847562852E+00 -1.172357796465E+01 3.907070885937E+00 -7.373855877463E+00 -2.179069784570E+01 -7.830139039146E-01 -1.177164582088E+00 1.304308578239E+01 -2.034713649552E+00 1.192279595955E+00 -1.779674600034E+00 2.701797693470E+00 3.520311620733E+00 9.267265154679E-01 1.580102896892E+01 -4.895562105618E+00 8.732256090116E+00 -5.160040689135E+01 1.098541931443E+02
 -3.504043804139E+00 3.088634142849E+01 -5.022601423616E+01 -3.613384216497E+00 -2.585396421252E+00 -3.048067108530E+00 -2.087558736441E+00 -3.030931671126E+00 1.015723041330E+00 3.636769674807E+00 3.585933412817E+00 2.586432478182E+01 -4.636282292440E-01 8.514290852139E-03 -7.014357128087E+00 -2.171388362789E+00 1.702205513764E-01 -2.720259172144E+00 1.844388505435E-01 -2.735693246030E-01 1.564542878296E-01 -6.429701059530E+00 2.958783713932E+00 -1.548117201769E+01 5.473365973713E+01 -2.659798865366E+01 2.574032134689E+01 4.975750701215E+00 -7.815245879386E+00 -9.273795411091E+00 -4.023643551323E+00 5.004782634261E+00 -6.535102910238E+00 8.986435512732E+00 5.199632823496E+00 1.973087372789E+01 -4.643696164687E+00 -1.476250693403E+00 -1.745800495599E+00 2.397065108174E+00 2.676836979564E+00 -2.939162494590E+01 -4.310271601282E+00 1.184891210746E-01 -8.001199596994E-02 5.056481847260E-01 -2.192351620985E+00 -4.816043934320E-01 -3.018586411467E+01 -9.107888602825E+00 -4.350755885297E+01 -1.398658792872E+01 2.470087911368E+00 9.699767148205E+01

