#BIOSYM hessian 1
@Type: Hessian Update
@Units
 distance: 	A
 energy: 	Kcal/Mol
#header
@natom 19

#label
L1      L2      L3      L4      L5      L6      L7      L8      L9      L10     L11     L12     L13     L14     L15     L16     L17     L18     L19

#element
Li Li Li Li Li Li Li Li Li Li Li Li Li Li Li Li Li Li Li

#matrix
57
 2.198671555192E+03
 -3.400445854109E+01 2.207713972123E+03
 -1.158457617854E+02 -6.650100465383E+01 1.774515661188E+03
 7.040649296479E+01 7.910206509473E+01 8.448513802719E+01 2.041538641806E+03
 3.348364474580E+01 2.078036631528E+01 1.204176361469E+02 -3.151192598550E+01 2.209379807344E+03
 -1.477614949348E+01 2.356585340695E+00 -1.343726673824E+02 -3.599986164744E+01 3.032536304902E+01 2.176270076512E+03
 -1.789043501213E+01 -1.445218931247E+01 -5.103785909616E+01 2.853564291534E+01 1.348919265394E+01 -9.663758532263E+00 2.233513452574E+03
 -6.384783793391E+01 -4.292233584574E+01 -2.022191420104E+02 7.741439476338E+01 5.551621531972E+01 -3.827760656501E+01 -2.472870275072E+01 2.137286131841E+03
 1.084905539252E+01 1.711409394097E+01 -5.827343001666E+01 -6.352527888711E+01 9.010443564848E+00 -5.381206818329E+01 -1.973365518911E+00 4.432172646466E+00 2.178241753030E+03
 -1.773872039808E+01 1.333698019135E-01 -1.190278503674E+02 -2.523584111491E+01 2.852053109453E+01 -4.797049884887E+01 -7.694850382912E+00 -4.300238255480E+01 -3.030756223620E+01 2.198125480082E+03
 4.206338243014E+01 2.988049717444E+01 1.456047525418E+02 -5.107874521133E+01 -3.841382761321E+01 3.602703096086E+01 1.889864077193E+01 6.618221050554E+01 1.299305751573E+01 3.026903685584E+01 2.191353851501E+03
 4.863710739528E+01 5.319691857657E+01 6.173876749431E+01 -1.331225603447E+02 -2.253602443910E+01 -2.324800500632E+01 1.930119068565E+01 5.496995200152E+01 -4.351266932372E+01 -1.495988708698E+01 -3.523664028439E+01 2.151733283537E+03
 -4.392268171912E+00 -9.870827848965E+00 3.973595126636E+01 3.643648516741E+01 -6.725268871401E+00 3.212599647674E+01 1.152761110013E+00 6.210125958064E-01 3.599151346397E+01 1.952500348002E+01 -8.810098842603E+00 2.474322727606E+01 2.220458062145E+03
 5.451177403327E+01 4.345733812823E+01 1.616090878191E+02 -8.591069869456E+01 -4.416872519923E+01 3.034599487486E+01 2.394335071907E+01 7.984936486535E+01 2.901173874962E+00 2.621962984901E+01 -5.881145698825E+01 -5.851042036566E+01 -2.737739377519E+00 2.166802979941E+03
 6.812416153980E+01 7.378038606300E+01 9.987903211253E+01 -1.831078771714E+02 -3.382939538043E+01 -2.257437869000E+01 2.853310759848E+01 7.644050254877E+01 -4.706567282429E+01 -1.720061144933E+01 -5.414921662282E+01 -1.220803388909E+02 2.784271830598E+01 -8.590156877347E+01 2.071303856412E+03
 9.251458285638E+00 6.030163800698E+00 3.578545155508E+01 -8.200827041214E+00 -9.194724696794E+00 1.027587900906E+01 4.227868209967E+00 1.544767652683E+01 4.683024144947E+00 8.536083643706E+00 -1.159122968144E+01 -5.764691103524E+00 -3.228788744020E+00 -1.326518895032E+01 -9.689713561992E+00 2.238167914250E+03
 -4.763783367298E+01 -3.410828284787E+01 -1.412688036251E+02 6.447247319329E+01 3.882698858930E+01 -2.414707698207E+01 -1.817678883943E+01 -7.376126149522E+01 5.338904620411E+00 -2.712135421583E+01 4.784124982210E+01 4.506382026431E+01 -1.153799791626E+00 5.926502744315E+01 6.307807315988E+01 1.084052562445E+01 2.188049632785E+03
 -2.267731987482E+01 -2.786077813017E+01 7.269659604506E+00 7.964128642049E+01 2.815082072996E+00 3.373307944474E+01 -5.818399846373E+00 -1.987197650480E+01 4.307446152943E+01 2.114730532296E+01 6.603344933729E+00 5.348871845311E+01 -2.519716381960E+01 1.999348828299E+01 6.796504223984E+01 -1.426053935289E-01 -1.730360078638E+01 2.202061430673E+03
 -3.844693228359E+00 -3.463427401677E+00 7.044425104102E+00 1.196815743834E+01 -5.169607367751E-01 1.075833728251E+01 6.507476735418E-01 -4.448868496663E+00 1.496089679122E+01 4.016737273698E+00 -2.058393498551E+00 8.581244041402E+00 -8.329795627049E+00 -2.007459186617E-01 8.128669765798E+00 -7.801867563762E-01 -3.062962212868E+00 -9.116433228793E+00 2.236838648917E+03
 8.865280966392E+00 2.507636860975E+01 -7.019384576875E+01 -8.423814672192E+01 1.237176580522E+01 -5.369913532067E+01 2.500911138235E+00 -6.962781952193E+00 -5.170355301575E+01 -4.205512568563E+01 9.448003479607E+00 -5.526838638101E+01 3.076371177653E+01 -4.943241714193E+00 -7.126289042493E+01 4.612677628467E+00 6.582042294959E-01 4.566763685479E+01 9.477139469771E+00 2.178991124930E+03
 -1.202518565953E+00 -4.771484130171E+00 8.799547396017E+00 1.464942671225E+01 -1.806626541296E+00 5.662138474117E+00 -1.262197328866E+00 2.622994004332E+00 3.021812701077E+00 6.960551930762E+00 2.418009529805E-01 9.256586961406E+00 -2.289304698869E+00 2.804775652991E+00 1.369144851789E+01 -3.015429827231E-01 5.437980012086E-01 -5.493280826692E+00 2.579547761748E-01 9.232714304374E+00 2.238459791745E+03
 1.950684006919E+01 1.760419345339E+01 2.828181432876E+01 -4.392124638959E+01 -1.050692817066E+01 -1.011154845529E+01 6.026751388291E+00 2.683337331027E+01 -2.365886807596E+01 -1.131950142922E+00 -1.205295237581E+01 -3.041476469829E+01 1.262257256111E+01 -1.954138634955E+01 -3.820256898932E+01 -2.096629973385E+00 2.028984861964E+01 2.130669867063E+01 6.377751075187E+00 -1.767729841050E+01 8.592862177185E-01 2.225924885577E+03
 -3.742090211919E+01 -3.593876653016E+01 -4.955762844402E+01 9.039056648228E+01 1.842754007085E+01 2.012104993323E+01 -1.205411080452E+01 -4.768486054751E+01 4.221619747190E+01 5.972004583911E+00 2.355049527439E+01 6.181850866173E+01 -2.319391738263E+01 3.902050002875E+01 7.969295012510E+01 3.963735317187E+00 -3.675734589253E+01 -4.102954022183E+01 -1.048420897031E+01 3.773031082067E+01 -3.475786207039E+00 2.717634933432E+01 2.190012865918E+03
 -2.683937055079E+01 -2.542783048897E+01 -3.627857550407E+01 6.457970051250E+01 1.389522218192E+01 1.511239700143E+01 -8.783837457512E+00 -3.557837712771E+01 3.242603011633E+01 3.675540725290E+00 1.677785606544E+01 4.441172800594E+01 -1.758449827117E+01 2.775477913915E+01 5.651417901808E+01 2.897706689269E+00 -2.751565847022E+01 -3.053348684878E+01 -8.404585150942E+00 2.679105142002E+01 -2.003218677034E+00 2.031908721034E+01 -3.778151453937E+01 2.212914939285E+03
 3.723692056009E-02 -2.877228621992E+00 -1.441463893681E-01 6.207918020847E+00 -8.068549415967E-01 -3.230320089200E+00 -1.658358021628E+00 4.114760084799E+00 -8.432710554407E+00 2.961455504205E+00 2.709304460851E+00 3.151188367127E+00 4.011822867228E+00 3.993612177832E+00 8.036282860360E+00 4.454165619541E-01 2.057392705449E+00 1.797017770096E+00 3.362467802461E+00 1.888505615526E+00 -2.481040235387E+00 -3.372524097817E+00 3.868536732679E+00 3.481784757341E+00 2.236364220918E+03
 7.327096329738E+00 7.087722412440E+00 7.348531421672E-01 -2.035601039561E+01 -2.069577612212E+00 -1.074740073221E+01 1.217634406069E+00 9.430143159580E+00 -1.700121384682E+01 -3.778520077690E+00 -1.390492305149E+00 -1.425960716468E+01 9.267637093507E+00 -4.765003983473E+00 -1.624711554497E+01 1.024312133483E-01 7.152666482204E+00 1.241491977372E+01 4.522428542802E+00 -1.177948128679E+01 1.976509843508E-01 -8.242093055502E+00 1.447018006217E+01 1.106743997465E+01 -3.000226704490E+00 2.235559312833E+03
 -1.460512836198E+01 -2.241163599832E+01 3.706010695641E+01 7.154162894960E+01 -4.125781209256E+00 4.320643168692E+01 -2.550139251309E+00 -8.568490299032E+00 5.014068825644E+01 2.750979850974E+01 -3.621905881457E+00 4.806644611637E+01 -2.897728268983E+01 8.349106155611E+00 5.862762555035E+01 -2.655176442829E+00 -9.433860112453E+00 -4.046818020460E+01 -1.103112130341E+01 4.877424490250E+01 -5.121803108615E+00 2.048443027080E+01 -3.921321858598E+01 -2.911908691544E+01 3.249621365738E+00 1.340576544628E+01 2.197073507357E+03
 1.865109975685E+01 3.007688622547E+01 -3.564036562338E+01 -9.193325968731E+01 2.821762108845E+00 -4.673119213585E+01 5.906862938340E+00 1.090744131953E+01 -5.301065545929E+01 -3.290305041672E+01 -6.238617063960E-01 -6.127623982116E+01 3.081162537773E+01 -1.627633115757E+01 -7.857583679527E+01 2.059579550644E+00 1.303251838811E+01 4.780403372525E+01 1.085234959843E+01 -5.807422346601E+01 7.767898441429E+00 -2.229775893326E+01 4.515120782371E+01 3.247205695335E+01 -7.072895975092E-02 -1.374734979034E+01 4.939130962663E+01 2.183068241801E+03
 -2.712102238175E+00 -1.890668250578E+01 9.109321896956E+01 7.199217027146E+01 -1.845697005999E+01 5.836341436443E+01 1.631747814994E+00 1.662006894113E+01 5.308735638363E+01 4.492611488762E+01 -1.776642501516E+01 4.704047465722E+01 -3.204059695404E+01 -5.738007961021E+00 5.807398554664E+01 -6.414430615501E+00 7.261956025519E+00 -4.247628387055E+01 -9.807165386898E+00 6.137634798043E+01 -8.443326541241E+00 1.598921337415E+01 -3.321509930649E+01 -2.421750349858E+01 -1.581786406473E-01 1.177451776079E+01 -4.822368002659E+01 5.661424933178E+01 2.179158986968E+03
 -5.538270925097E+00 -1.558252802537E+01 5.318183500539E+01 5.548952619583E+01 -9.432237283796E+00 4.041146461661E+01 -3.161677417695E-01 4.625392937519E+00 4.061252151260E+01 2.908320785013E+01 -9.208334284058E+00 3.677846320764E+01 -2.394385142665E+01 5.375750187328E-02 4.508054757691E+01 -3.706054320246E+00 -1.129144881013E-01 -3.267591695434E+01 -8.234358058059E+00 4.325535909965E+01 -5.362536900191E+00 1.385897808126E+01 -2.786458088189E+01 -2.026249671600E+01 9.425832354416E-01 9.724727888781E+00 -3.608806935062E+01 4.126595569807E+01 -4.363663095322E+01 2.209554767617E+03
 -2.840288446586E+01 -8.646005928251E+00 -1.666113530335E+02 -1.210612669545E+01 4.006119623017E+01 -6.571606094795E+01 -1.465228454909E+01 -5.864134853549E+01 -4.589364268198E+01 -5.222482632511E+01 4.775053253173E+01 -6.581594100816E+00 2.828530854136E+01 4.624977289905E+01 -4.165318505675E-01 1.275999766544E+01 -3.918599614108E+01 2.437073258568E+01 8.319859365218E+00 -4.844570417782E+01 5.496100511492E+00 -2.344130773766E+00 5.862442661260E+00 4.575565668535E+00 -2.005482271390E+00 -7.140409636221E+00 3.554423736251E+01 -3.806659070871E+01 5.477350474602E+01 3.635384126531E+01 2.169209289307E+03
 -9.772728357121E+01 -6.697348200174E+01 -3.283808249108E+02 1.146200238045E+02 8.834454259125E+01 -7.319909192374E+01 -4.107314408125E+01 -1.583148386873E+02 -1.163960193314E+01 -7.067287283513E+01 1.087238303279E+02 8.059379700667E+01 1.147774639086E+01 1.296564480711E+02 1.185651902275E+02 2.526863179690E+01 -1.131919084374E+02 -2.209713900423E+01 -1.434569213553E+00 -1.945963917647E+01 2.499003844305E+00 3.459868879395E+01 -6.359098401524E+01 -4.662671352038E+01 9.101442053359E-01 8.971744508266E+00 -1.143250887421E+00 6.760368262855E+00 3.584929280958E+01 1.580200747517E+01 -1.025570499720E+02 1.991516771242E+03
 -1.084290485499E+01 -2.008399299501E+01 5.827298328204E+01 7.049238096374E+01 -8.827003690251E+00 5.285293014781E+01 -1.103724003036E-01 -2.804320546565E+00 5.944112269128E+01 3.287783262841E+01 -1.076325807639E+01 4.765005630303E+01 -3.418380038456E+01 8.636793585554E-01 5.543663992158E+01 -4.420471023936E+00 -5.414163975999E+00 -4.439002460939E+01 -1.351832230718E+01 5.405838263242E+01 -4.787086964178E+00 2.211824336560E+01 -4.155567783538E+01 -3.102634166494E+01 5.282339375441E+00 1.553191178850E+01 -4.963291497254E+01 5.413138206714E+01 -5.516074618546E+01 -4.101678615884E+01 4.546864719986E+01 1.146744498677E+01 2.183319492823E+03
 -2.610015878753E+01 -4.001407014228E+01 -2.526608387408E+00 1.074748671580E+02 5.453293310927E+00 2.753366710243E+01 -1.366171675239E+01 -1.782463365176E+01 2.933240244280E+01 2.833452907657E+01 1.771631792930E+01 7.011073048771E+01 -1.797765624702E+01 3.679068821890E+01 1.002005801751E+02 1.679333584944E+00 -1.976413016674E+01 -4.233596308925E+01 -3.167356862914E+00 5.365770657725E+01 -1.185499238369E+01 1.644987629191E+01 -3.934067504156E+01 -2.649825938821E+01 -9.535219515103E+00 6.999944433431E+00 -3.775926591306E+01 5.194367941911E+01 -4.782244858129E+01 -3.331535875886E+01 1.935048251281E+01 -2.996662301698E+01 -3.624323904669E+01 2.171807622527E+03
 7.419786418999E+01 6.163893144248E+01 2.072919040439E+02 -1.244009070652E+02 -5.798100013916E+01 3.256605099649E+01 3.235573450906E+01 1.079330013346E+02 -6.748873953163E+00 3.047172757725E+01 -7.687491934480E+01 -8.476556035638E+01 1.477682023026E+00 -9.933532727682E+01 -1.233424867728E+02 -1.666622460474E+01 8.050604580804E+01 3.431552952091E+01 2.323793015565E+00 -1.404970346617E+01 4.274006382746E+00 -2.969012473620E+01 5.896261250257E+01 4.216613413814E+01 4.097074824535E+00 -8.986623716185E+00 1.903356003743E+01 -2.965770264733E+01 7.466509605770E-01 6.340641858198E+00 5.497709692224E+01 1.710375204679E+02 1.040567356038E+01 5.273407104060E+01 2.107724073527E+03
 1.821958650443E+01 1.890350309891E+01 7.102128917173E+00 -5.227855237348E+01 -5.828980686951E+00 -2.158436784676E+01 4.534981786172E+00 2.177778383655E+01 -3.391566296268E+01 -9.274436674482E+00 -6.563563152667E+00 -3.591851406274E+01 1.877236052016E+01 -1.534958320041E+01 -4.386423172333E+01 -4.980133804891E-01 1.717135406269E+01 2.792083336723E+01 8.479397298675E+00 -2.777219425020E+01 1.843875700253E+00 -1.747538989018E+01 3.198243072859E+01 2.402382981310E+01 -4.199129886851E+00 -1.051289395829E+01 2.889221745937E+01 -3.148739992808E+01 2.660280921246E+01 2.144963194832E+01 -1.358145138282E+01 2.415492864202E+01 3.228789074798E+01 2.208611742331E+01 -2.583621126780E+01 2.218796424033E+03
 -5.588457708532E+00 -1.291693996298E+01 3.379366249880E+01 4.260701728581E+01 -5.655535126209E+00 2.799359149214E+01 -1.016394973469E+00 1.242980995954E+00 2.888019661606E+01 2.039696789017E+01 -4.808217718827E+00 2.818520565351E+01 -1.681976453057E+01 2.507684347473E+00 3.561299736186E+01 -2.408344618380E+00 -1.562244890639E+00 -2.406808733187E+01 -5.731481604626E+00 3.134636681339E+01 -4.116975053353E+00 1.033597606063E+01 -2.094971601707E+01 -1.526716833952E+01 3.758789701647E-01 6.955989906006E+00 -2.606699076446E+01 3.023178873257E+01 -3.125551158308E+01 -2.254691751747E+01 2.470844872686E+01 8.033294716411E+00 -2.933398165544E+01 -2.540400214605E+01 7.333383388963E+00 1.565382211830E+01 2.224687808973E+03
 -1.989891438236E+01 -3.268221597631E+01 6.920837739449E+00 9.025687331990E+01 2.406782946154E+00 2.617356380448E+01 -1.071502812762E+01 -1.121320924190E+01 2.614819873529E+01 2.653399347298E+01 1.231963800113E+01 5.877199319923E+01 -1.620100925807E+01 2.820446496357E+01 8.353163066187E+01 8.674548139679E-01 -1.424875859573E+01 -3.635314944770E+01 -2.873488663785E+00 4.720400042072E+01 -1.026003938856E+01 1.348309888332E+01 -3.265145467504E+01 -2.181953473737E+01 -8.230502522365E+00 5.958762848064E+00 -3.301566068065E+01 4.495647405938E+01 -4.270381073536E+01 -2.943399635358E+01 1.986021010013E+01 -1.936577272173E+01 -3.203571726945E+01 -5.899691557620E+01 4.116673253033E+01 1.870371995569E+01 -2.245638246508E+01 2.190387759548E+03
 2.645111841406E+01 -7.913105468907E-01 2.073873194786E+02 4.695166104278E+01 -4.778022157790E+01 9.361044951621E+01 1.498333165825E+01 6.435535487902E+01 7.305028024158E+01 7.271366147565E+01 -5.558750555297E+01 2.958049386458E+01 -4.416692904389E+01 -4.817015846841E+01 2.869394372631E+01 -1.569976340171E+01 4.097887877668E+01 -4.578829870387E+01 -1.375197754388E+01 7.735016912106E+01 -9.150719295108E+00 1.085752372678E+01 -2.323998232603E+01 -1.715805152714E+01 2.537253897259E+00 1.337544980508E+01 -5.940629583740E+01 6.524313320654E+01 -8.432850021034E+01 -5.734303278399E+01 9.737794213045E+01 1.173587005550E+02 -7.278384818100E+01 -4.088388604526E+01 -5.374403831319E+01 2.731069644861E+01 -3.966461279828E+01 -3.905059331538E+01 2.103671058366E+03
 -9.186089830034E+00 -5.471755972406E+00 -3.651567348403E+01 7.140913509789E+00 9.377780920593E+00 -1.059714714895E+01 -4.068017137939E+00 -1.570808119857E+01 -4.835319639802E+00 -9.107381891399E+00 1.155155279037E+01 5.118645119004E+00 3.235650763491E+00 1.291297581814E+01 8.416272779335E+00 2.806513475157E+00 -1.098370341298E+01 5.685457677626E-01 7.029947053855E-01 -5.259464468287E+00 5.496618484695E-01 2.126342287374E+00 -3.798194721895E+00 -2.791601414883E+00 -1.929607108372E-01 -5.351973575457E-02 2.932203156126E+00 -2.627045001711E+00 7.024055857381E+00 4.102833282050E+00 -1.308835619824E+01 -2.571581123098E+01 4.678024886740E+00 -7.837171631587E-01 1.650830501614E+01 4.364366598346E-01 2.602661298743E+00 1.193918694485E-02 1.624886455175E+01 2.237978969828E+03
 -7.211656676228E+00 -9.088690099570E+00 -7.258839917102E+00 2.306282020332E+01 2.922682885396E+00 4.149643730265E+00 -3.358597340568E+00 -7.080186642021E+00 6.185848108640E+00 3.918502362313E+00 5.530698912776E+00 1.522005872182E+01 -3.608683129050E+00 9.620235788875E+00 2.158380331305E+01 8.104757196682E-01 -6.340427465005E+00 -8.890974831309E+00 -8.828333604104E-01 1.006021460906E+01 -2.091776030217E+00 4.227199189769E+00 -9.340504369391E+00 -6.479333738895E+00 -1.497988850827E+00 1.785031943386E+00 -7.740207407946E+00 1.041778756092E+01 -8.658846093509E+00 -6.330739026255E+00 1.855533250711E+00 -1.109883860653E+01 -7.325417143939E+00 -1.352737922004E+01 1.359617656644E+01 5.171113222643E+00 -4.875663221101E+00 -1.144503602477E+01 -5.833326931142E+00 -6.738040067877E-01 2.238053416410E+03
 -2.363978016809E+01 -2.820122716274E+01 -3.190801553080E+01 7.003970054666E+01 1.115809133860E+01 8.603460666799E+00 -1.116337219664E+01 -2.459684118649E+01 1.523088448625E+01 9.060799044359E+00 1.980072530372E+01 4.628124167625E+01 -9.068770079331E+00 3.219274387780E+01 6.609960207498E+01 3.326455493553E+00 -2.141635616923E+01 -2.534530438171E+01 -1.910860269493E+00 2.799210095160E+01 -6.245191784809E+00 1.245811485111E+01 -2.777126651482E+01 -1.912840516955E+01 -5.060819984368E+00 4.796323994732E+00 -2.111719794870E+01 2.948839619726E+01 -2.312424978372E+01 -1.703583761080E+01 1.304129980421E+00 -3.989524169350E+01 -1.917758850247E+01 -4.097729569833E+01 4.513963849005E+01 1.459375221147E+01 -1.342933334931E+01 -3.438266495968E+01 -1.195746475535E+01 -2.822363531055E+00 -8.519386974728E+00 2.214537769467E+03
 -7.172607901884E-01 -7.506422974703E+00 4.017185172256E+01 3.023818109701E+01 -7.416030943186E+00 2.689658639536E+01 6.663216220892E-01 5.716117894554E+00 2.683867520864E+01 1.890624394582E+01 -8.511839531841E+00 2.012521653165E+01 -1.551526702303E+01 -3.469680725745E+00 2.375816855136E+01 -2.935917611247E+00 1.880752581634E+00 -2.025616418586E+01 -5.741988301532E+00 2.633672369591E+01 -2.906447496668E+00 8.154317201664E+00 -1.633012670938E+01 -1.174188064539E+01 1.153985493525E+00 6.232779967045E+00 -2.263407070935E+01 2.480111620626E+01 -2.768347069429E+01 -1.956834996210E+01 2.495050533818E+01 1.538137469278E+01 -2.615220797669E+01 -1.770468662985E+01 -9.333033974546E-01 1.326710507651E+01 -1.395448629461E+01 -1.581990878731E+01 -3.807404089101E+01 3.111812277790E+00 -3.301555709872E+00 -8.525991844068E+00 2.228650249005E+03
 -1.428278461070E+01 -8.680526790048E+00 -7.082287318661E+01 7.919546470086E+00 1.745199588974E+01 -2.621971036918E+01 -8.463780643971E+00 -2.521820116779E+01 -1.921051776987E+01 -1.821828073670E+01 2.303129476051E+01 5.438722510110E+00 1.161915163226E+01 2.482106168462E+01 1.296367881725E+01 5.736557030485E+00 -1.812700284192E+01 6.289644936645E+00 4.249015114387E+00 -1.462977901671E+01 2.743984286757E-01 -5.986360174789E-01 -2.092912585570E-01 6.363272442393E-01 -3.540392504863E+00 -3.386209615519E+00 1.235022728137E+01 -1.115371109706E+01 1.813988480939E+01 1.244675733241E+01 -2.906167539991E+01 -4.605207585287E+01 1.754403330049E+01 -1.849693199647E+00 2.992516778385E+01 -5.001037945149E+00 8.079035932451E+00 -1.643314789061E-01 3.808546272244E+01 -5.713771875185E+00 -1.063261270848E+00 -5.267948895349E+00 9.457998847684E+00 2.227259692298E+03
 2.832697743346E+01 2.756277291940E+01 4.657143921267E+01 -6.661757027707E+01 -1.569532529030E+01 -8.639789359786E+00 1.055532274713E+01 3.629839197676E+01 -2.383926313163E+01 -2.101798203180E+00 -2.128209590828E+01 -4.524110778446E+01 1.297079809891E+01 -3.286340959794E+01 -6.073394325587E+01 -3.874697196549E+00 2.827511751891E+01 2.737110543074E+01 5.631442524308E+00 -2.446867922278E+01 3.160651065499E+00 -1.780657201295E+01 3.445669735111E+01 2.515287979572E+01 -5.623306896374E-01 -8.583508127931E+00 2.441826954301E+01 -2.957382567870E+01 2.041963335031E+01 1.709689115551E+01 1.360187714577E+00 5.185906006452E+01 2.443011037854E+01 3.073543919577E+01 -4.751419601171E+01 -2.022360438419E+01 1.317410661797E+01 2.536979065337E+01 9.047501117469E+00 3.705333112571E+00 7.175796747879E+00 2.187962758536E+01 9.314392362637E+00 3.450651643649E+00 2.216335202930E+03
 1.468774944171E+01 1.115687725070E+01 3.399920247047E+01 -2.376273809744E+01 -9.932532476388E+00 1.245836235873E+00 4.588449763977E+00 2.149520595053E+01 -8.254783416884E+00 4.895634368101E+00 -1.191399105524E+01 -1.661380976950E+01 4.163805894868E+00 -1.603084398426E+01 -2.165303336453E+01 -2.504729180379E+00 1.534705642593E+01 9.012120598596E+00 2.517823125814E+00 -5.197696111252E+00 -4.779576667287E-02 -8.347058543381E+00 1.474437585292E+01 1.131640178313E+01 -1.876764464601E+00 -3.927920846635E+00 7.833697487908E+00 -9.033196629526E+00 3.047713658883E+00 4.160463947071E+00 6.372472368584E+00 3.071593538133E+01 7.866091904568E+00 7.764311333008E+00 -2.294178687520E+01 -8.500884997746E+00 3.288206618057E+00 6.050940168672E+00 -4.125201148177E+00 2.574066983238E+00 2.270613240427E+00 7.133196750529E+00 2.368178031505E+00 3.003911420226E+00 -1.032854570194E+01 2.235701920580E+03
 -1.466353423566E+01 -1.145712287597E+01 -4.939138643663E+01 2.092723728779E+01 1.345938306439E+01 -1.135674006159E+01 -7.221129585005E+00 -2.305641294503E+01 -3.139910443765E+00 -9.312806327279E+00 1.749085719311E+01 1.435045818128E+01 2.467030578082E+00 2.134554355244E+01 2.202478429077E+01 4.011451401425E+00 -1.720570397950E+01 -4.129804970136E+00 4.321806002899E-01 -1.646901488338E+00 -4.560689119417E-01 4.524235644377E+00 -9.394529761529E+00 -6.373405892661E+00 -1.441576937139E+00 6.700910630346E-01 -1.097333770911E-01 1.635437314359E+00 4.198122863721E+00 2.112327477362E+00 -1.549874739187E+01 -3.777242706171E+01 2.545235937876E+00 -8.008022819560E+00 2.770425720190E+01 2.931473700571E+00 8.410948030541E-01 -5.827199049702E+00 1.759074259784E+01 -3.973167983472E+00 -2.275811561677E+00 -7.979324561036E+00 2.640973592631E+00 -7.686421682491E+00 8.196976502332E+00 4.517375490858E+00 2.234895849010E+03
 -4.269338990349E+00 -8.513099145523E+00 1.336619420445E+01 2.600322147730E+01 -2.154656913017E+00 1.271276956554E+01 -1.502876796835E+00 5.323793899422E-02 1.197058401290E+01 1.077672486488E+01 -2.188108235573E-01 1.698544068526E+01 -7.373897102383E+00 4.266832223154E+00 2.279321314130E+01 -7.338284003933E-01 -1.529216533042E+00 -1.214109413477E+01 -1.834785232569E+00 1.694355139892E+01 -2.956272712896E+00 4.762544605849E+00 -1.050804827835E+01 -7.453525153796E+00 -1.320987433611E+00 2.761327117855E+00 -1.256271709055E+01 1.600082272870E+01 -1.596755131074E+01 -1.132665281690E+01 1.098667339757E+01 1.150004549301E+00 -1.346568826264E+01 -1.714569421317E+01 7.633357468962E+00 7.119132855161E+00 -8.325797349448E+00 -1.494130428540E+01 -1.855592384436E+01 9.634726753751E-01 -3.232487744862E+00 -9.326048601750E+00 -6.820074031085E+00 2.382653652903E+00 7.417254748091E+00 1.439511622031E+00 -5.974729818892E-01 2.236056471926E+03
 -5.386461495166E+01 -4.175226096239E+01 -1.501940469803E+02 8.264765225288E+01 4.243826781187E+01 -2.128270275549E+01 -2.153587078207E+01 -8.177874742720E+01 1.187670905606E+01 -2.526446838409E+01 5.295481730940E+01 5.723062312235E+01 -4.275836312768E+00 6.786156391349E+01 8.055765323254E+01 1.149682331636E+01 -5.958062378285E+01 -2.545567548973E+01 -4.524525028900E+00 7.647414539733E+00 -7.440023779230E-01 2.433152040429E+01 -4.544476311827E+01 -3.347567598263E+01 1.476958084338E+00 9.099471547251E+00 -1.599022384948E+01 2.096082440970E+01 6.984675234480E-01 -4.969841154303E+00 -3.857839718822E+01 -1.242035395979E+02 -1.177568533803E+01 -2.854845459067E+01 9.180278228101E+01 2.211443049307E+01 -5.088505373561E+00 -2.169175460358E+01 3.756513014852E+01 -1.172464806486E+01 -8.276221598305E+00 -2.756038060216E+01 -3.219925329408E-01 -1.864775655304E+01 3.442132355405E+01 1.797852683252E+01 -1.886509658601E+01 -3.964931804815E+00 2.173751348431E+03
 3.522220757510E+01 6.204838716210E+01 -1.600702959996E+02 -2.115057318014E+02 2.398564655335E+01 -1.504804017560E+02 1.587399987657E+00 1.095166135572E+01 -1.689185694622E+02 -9.512239455157E+01 2.702845510554E+01 -1.425188111655E+02 9.755559865078E+01 -7.977302161590E+00 -1.684449053834E+02 1.198221080999E+01 1.764566320892E+01 1.284939184299E+02 3.765674275483E+01 -1.582481716513E+02 1.498085242160E+01 -6.418794343712E+01 1.211449673586E+02 9.063781131846E+01 -1.376192587075E+01 -4.420131949750E+01 1.433694845483E+02 -1.585048074723E+02 1.594999222298E+02 1.189097704248E+02 -1.286161145122E+02 -2.640472267858E+01 1.652749537128E+02 1.112682605913E+02 -3.732937641286E+01 -9.298011969154E+01 8.518297663722E+01 9.817228522423E+01 2.077092534783E+02 -1.281921505527E+01 2.243849872446E+01 5.948141637869E+01 7.585587388939E+01 -4.792305795043E+01 -7.255667561218E+01 -2.258701263790E+01 -5.285291374213E+00 3.960403048982E+01 3.733560535248E+01 1.766088900272E+03
 -4.813102525197E+01 -5.136476002535E+01 6.598732622527E+00 1.476320470829E+02 1.018150796762E+01 7.395693589982E+01 -9.162772659737E+00 -5.491878641557E+01 1.085181123321E+02 3.330950489189E+01 9.432325825376E+00 1.016980913096E+02 -6.026621685128E+01 3.414342812374E+01 1.207781589379E+02 -1.080326569499E+00 -4.323883935126E+01 -8.398117957607E+01 -2.710115477354E+01 8.635065157525E+01 -4.861422461219E+00 5.222764563948E+01 -9.419279937324E+01 -7.156359677731E+01 1.501554342623E+01 3.279921367181E+01 -8.986309812836E+01 9.653861366971E+01 -8.436488914678E+01 -6.781524854159E+01 5.128950137889E+01 -5.271624662437E+01 -1.025385879226E+02 -6.128844102677E+01 6.255248342308E+01 6.746956684955E+01 -4.882074251217E+01 -5.263623244753E+01 -9.507145566054E+01 1.021943979550E+00 -1.427186411835E+01 -3.922074298410E+01 -4.302496431644E+01 2.061815103276E+01 5.782241827420E+01 2.385310217548E+01 -5.435591484802E+00 -2.119091112597E+01 -5.741780891221E+01 2.933776605182E+02 2.032386360844E+03
 1.020921721301E+02 6.110473709967E+01 4.028568323375E+02 -8.118519681964E+01 -1.047135816858E+02 1.133353887625E+02 4.545601329980E+01 1.770601124158E+02 4.592929695157E+01 1.007922083324E+02 -1.269741577081E+02 -5.880042041088E+01 -3.245378264999E+01 -1.426529066326E+02 -9.461292932224E+01 -3.070667912363E+01 1.242224629203E+02 -1.740869428971E+00 -5.131721265748E+00 5.656677557052E+01 -6.852386709225E+00 -2.626009958118E+01 4.692151731138E+01 3.417044462354E+01 2.991469749729E-01 -1.681186879060E+00 -2.819800402170E+01 2.639071604999E+01 -7.439697484818E+01 -4.287746489030E+01 1.420447968618E+02 2.858238605869E+02 -4.632888708267E+01 6.156745911249E+00 -1.824214120187E+02 -8.689916270493E+00 -2.726799800751E+01 -2.394207017595E+00 -1.755419347986E+02 3.152393426280E+01 7.060818794205E+00 3.023314342133E+01 -3.324372481466E+01 6.060592795397E+01 -4.286612983400E+01 -3.043811292514E+01 4.290555530813E+01 -1.016731229740E+01 1.317800403454E+02 1.261842592087E+02 1.826459042935E+00 1.893444190253E+03
 6.831499473339E+01 3.149658127248E+01 3.433586646184E+02 -1.255155500031E+01 -8.510502323130E+01 1.225898901634E+02 3.462443766016E+01 1.301503931112E+02 7.755809748057E+01 9.833488430549E+01 -1.033326410840E+02 -1.139442487621E+01 -4.880995165054E+01 -1.068938097318E+02 -3.293525320440E+01 -2.649745644978E+01 8.959520124200E+01 -3.237982884292E+01 -1.367509692697E+01 8.033489438208E+01 -8.245653126612E+00 -3.551496237213E+00 5.533214415727E+00 2.928686241996E+00 4.983916737744E+00 1.011147347529E+01 -5.654249671156E+01 5.835142475641E+01 -9.428808404404E+01 -6.137683825784E+01 1.386844206898E+02 2.227614908025E+02 -7.627543640539E+01 -1.951320859600E+01 -1.305056956696E+02 1.680661306896E+01 -4.093380863617E+01 -2.346079437203E+01 -1.831146599594E+02 2.707251570195E+01 4.029160820105E-01 9.867168827332E+00 -4.393587504919E+01 5.815687408192E+01 -1.494096702672E+01 -1.737767502991E+01 3.394502427836E+01 -1.676993857912E+01 9.092914318923E+01 2.129065045769E+02 -7.242309225238E+01 -2.937409548537E+02 1.966533443263E+03
 7.839638661770E+01 8.957273849595E+01 4.038663537044E+01 -2.404261806781E+02 -2.616681737327E+01 -8.057575819098E+01 2.595524843150E+01 8.653067764102E+01 -1.224268216525E+02 -4.463180172032E+01 -3.832066709618E+01 -1.625816192141E+02 6.834727506663E+01 -7.986285970246E+01 -2.108591344238E+02 -3.784464321172E+00 7.175542537776E+01 1.158474280567E+02 2.779512012305E+01 -1.208282517496E+02 1.406879725626E+01 -6.594849578990E+01 1.276670876120E+02 9.356707855497E+01 -5.530630638565E+00 -3.695821181556E+01 1.138323567595E+02 -1.321661217833E+02 1.125497739862E+02 8.756424244200E+01 -4.915280997125E+01 1.066908919442E+02 1.222321376315E+02 1.174326926539E+02 -1.241761308928E+02 -8.332051076738E+01 6.462171053069E+01 9.975048454647E+01 1.049508292580E+02 3.229481108416E+00 2.578486139139E+01 7.544051599453E+01 5.154452353506E+01 -1.127106253724E+01 -8.548145299576E+01 -3.272026809475E+01 1.645458146398E+01 3.371325207788E+01 9.288883298559E+01 -3.576204685080E+02 2.488862574789E+02 -4.482986397058E+01 5.292510397701E+01 1.901686479949E+03