#BIOSYM hessian 1
@Type: Hessian Update
@Units
 distance: 	A
 energy: 	Kcal/Mol
#header
@natom 6

#label
L1      L2      L3      L4      L5      L6

#element
Li Li Li Li Li Li

#matrix
18
 1.779795335227E+03
 -2.769165574255E+02 2.121195986306E+03
 3.342904008314E+02 1.042354304311E+02 2.063207613010E+03
 4.000658185932E+02 3.415649288656E+02 -1.862569189072E+02 1.086093661580E+03
 1.292398738592E+02 4.883693996510E+01 2.627725965177E+01 -1.818070534774E+02 2.001422465741E+03
 -3.069455710414E+01 9.106700439532E+01 -2.026482125567E+01 -5.510697050274E+02 2.109136987458E+02 1.504366087361E+03
 4.691047123193E+01 5.131006945811E+00 -7.670111462642E+01 2.954341095101E+02 -1.012517743146E+02 3.844395304518E+02 2.054918334133E+03
 1.293725553021E+02 -2.184324372699E+01 -6.729487701794E+01 -1.126213415596E+01 2.213615862587E+02 -1.952860119526E+02 -5.655844126292E+00 1.404713537967E+03
 -1.511650111335E+02 -1.535067796627E+02 1.821879482804E+02 2.396306553523E+02 -5.763728586154E+00 1.549549800664E+02 -9.310166378257E+01 -1.662734314629E+02 2.016349307741E+03
 8.007826034546E+01 -2.249815671670E+01 -4.273994499438E+01 2.027923759686E+02 -5.896389486711E+01 2.895999758535E+02 -1.832876373204E+02 -4.378318747297E+02 -2.416733424003E+02 1.780355482126E+03
 1.225525770880E+02 1.407086468065E+02 -1.731484540034E+02 -2.502499489323E+01 -1.593650437559E+02 2.039020573174E+02 -5.195366324319E+01 4.123864134863E+02 1.693790618930E+02 2.073690510267E+02 1.932022161507E+03
 -2.972127441736E+02 -9.600710798786E+01 2.295515679028E+02 1.269871954840E+02 -1.923316196583E+02 1.898490053918E+02 1.364891317131E+01 6.728356087146E+02 -1.101759344571E+01 3.004806085407E+02 -2.150066361311E+02 1.567672182106E+03
 2.696534269473E+02 1.826674585436E+02 -3.661420659639E+02 1.543829739688E+02 6.115331406423E+01 1.446799330899E+02 -8.709948445107E+01 2.659825324554E+02 3.299172784134E+02 2.521281411069E+02 -3.853988312123E+02 6.803443471518E+01 1.357744116928E+03
 -8.272846098707E+01 -7.350852707910E-01 -1.415750072942E+02 2.759592610317E+02 2.710302873056E+02 -1.651948379725E+02 8.005346327189E+01 1.659800205385E+01 1.777654371316E+02 2.465120560089E+02 -5.762915022364E+01 1.122850560573E+02 -4.646824574326E+02 1.719974870620E+03
 2.719734522432E+02 8.829839086935E+01 -9.703813334075E+01 1.334389482877E+01 -2.773819542814E+02 4.795573344055E+02 -2.653799661586E+02 -3.717893534609E+01 -1.114023689023E+02 -3.419304938992E+02 -1.003473177358E+02 4.713174709324E+01 2.221030629702E+01 3.554763012697E+02 1.689983435148E+03
 -3.356571916243E+02 -2.299486802129E+02 3.375496436605E+02 1.020771811002E+02 1.516295347357E+02 -2.369551772636E+02 1.139703276170E+02 5.939476525436E+01 -8.360791644918E+01 1.087794984942E+02 1.324558612340E+02 -2.119384077375E+02 2.940369462205E+02 -5.511386189269E+01 2.997828066888E+02 1.957639358913E+03
 -2.151998783657E+01 -4.731712335906E+01 2.515056482328E+02 -3.994300073708E+02 -1.424401147938E+02 -1.454019105334E+02 7.367681146639E+01 2.076298246822E+02 -2.160055931278E+01 6.541281927793E+01 -2.727690709968E+01 -2.817753009946E+02 3.402779835816E+02 2.916071962357E+02 -2.886648477562E+01 -5.841761911850E+01 1.958643245056E+03
 -1.271915406634E+02 -3.408693804512E+01 -1.167980538760E+02 3.573648782697E+02 2.382863441283E+02 -6.761646524809E+01 3.709430094459E+01 -2.068023529351E+02 9.773846981381E+00 3.626319689965E+01 1.152212886600E+02 2.176592116725E+02 -1.986998865515E+02 -3.387569491918E+02 2.326141063168E+02 -1.048309488992E+02 2.261386073836E+02 1.965213474874E+03

