#BIOSYM hessian 1
@Type: Hessian Update
@Units
 distance: 	A
 energy: 	Kcal/Mol
#header
@natom 10

#label
L1      L2      L3      L4      L5      L6      L7      L8      L9      L10

#element
Li Li Li Li Li Li Li Li Li Li

#matrix
30
 3.272446947448E+01
 -4.092507961533E+01 1.204312222954E+02
 2.481823456992E+01 -7.649250274922E+01 6.362644954866E+01
 -2.501954620540E+01 4.080070508327E+01 -4.073028360829E+01 1.407745414772E+02
 -7.347809329273E+00 -3.236496779917E+00 -5.353677481754E+00 2.716084693814E+01 1.852074948097E+01
 -8.335209570879E+00 2.283541954866E+01 -2.314781554529E+01 4.704043373971E+01 1.046023048067E+01 3.436682323697E+01
 -1.511631633002E+00 3.199669852252E+00 -1.295891587398E+00 -2.363952689282E+00 2.098515589445E+00 -2.831380382977E+00 2.091666410679E+01
 -2.810154547657E+00 1.129053898726E+01 -9.479104088853E+00 1.011051910723E+01 -3.323978150516E+00 5.757319148422E+00 -2.095128070808E+00 2.985478102545E+01
 -8.303999093451E+00 1.635028432333E+01 -7.309618492622E+00 1.098954054785E+01 1.842749819353E+00 2.039379367244E+00 -5.410331541761E+00 2.787826713676E+00 3.297827516160E+01
 4.937910410630E+00 -1.699362202813E+01 1.086732635402E+01 1.884683652081E+00 2.075397202738E+00 -8.355230361391E-01 -7.937704013812E+00 -7.487696792767E+00 2.574213807624E+00 2.964638777169E+01
 1.218835725143E+01 -3.994937508760E+01 2.679851102606E+01 1.183560901148E+01 6.176831594723E+00 4.684790871768E+00 -8.245491766559E-01 -1.571513885742E+00 -5.955411212220E+00 -2.059759085764E-01 8.618443695041E+01
 -1.181311211642E+01 3.637587556932E+01 -2.318194034671E+01 -9.323459323203E+00 -5.856789713067E+00 -4.555956935216E+00 1.538533505195E+00 4.126801491817E+00 5.669682888513E+00 -1.951482224562E+01 -2.221293259271E+01 6.516370606585E+01
 -3.694069834029E+00 -1.059709195963E+01 1.056505731449E+01 -2.540102373452E+00 -4.600095779236E-01 7.745840168434E-01 -1.358305002068E+00 -1.067746817661E+00 7.310779865617E-01 -9.976293471396E-01 -1.598662523759E+00 -1.763966687285E+00 3.817069490358E+01
 5.853246395070E+00 -8.214242452240E+00 3.724261751712E+00 1.392489622540E+00 -4.409137948529E-02 1.304242030820E+00 -3.739130779046E+00 1.567654333602E+00 1.829957311650E+00 1.970209799028E+00 -1.687229126276E+01 7.794190709415E-01 1.513875470584E+01 2.976876657603E+01
 3.834387110331E-01 8.915833085194E+00 -7.794478580793E+00 -4.935953148038E+00 -1.994576170993E+00 -1.376064791647E+00 1.586948770948E+00 1.660723509909E+00 1.639300327951E-01 -3.102171845391E+00 -2.178649889876E+00 2.834650727900E+00 -7.380888951587E+00 -1.568141813889E+00 1.356213411743E+01
 -2.803292427223E+00 1.197125144780E+01 2.420608561801E+00 -8.488590097001E+01 -2.346129088438E+01 -4.441417128818E+01 3.849833094810E+00 -1.633731250580E+00 -1.865454265417E+00 -1.179331970326E+01 -2.052484365762E+01 2.777489492297E+01 -2.570182117575E+01 -1.275484758894E+01 1.823221413637E+01 1.198277996304E+02
 3.298469740016E+01 -1.051353608098E+02 8.626255909990E+01 -6.818390833609E+01 -1.193040416031E+01 -3.944630357380E+01 -3.300886950631E+00 -2.565482438794E+01 -1.537421290945E+01 1.906744287811E+01 2.555834944769E+01 -2.816350598540E+01 2.191197601672E+00 3.878262963974E+00 -7.490151358262E+00 2.458474392184E+01 1.561639365704E+02
 -1.432109168118E+01 3.653624958286E+01 -2.410965594820E+01 -4.693495770332E+00 -5.040365117013E+00 -5.994470914833E+00 4.852678728751E+00 9.470766577342E-01 -1.650257479430E+00 -6.598529231591E+00 -2.294568657980E+01 1.790435532390E+01 1.203021741707E+00 -1.019263550572E+00 -2.200787027459E+00 1.722885634367E+01 -2.377963197380E+01 4.008350344588E+01
 -7.237503512076E+00 4.269452374395E+00 2.306071448280E+00 -1.928599037442E+01 1.212185938604E+00 8.975166112953E+00 -9.999435520692E-01 -2.053270080617E-01 -8.745046555841E-01 -6.364208229892E+00 8.595684333421E+00 -7.236129772900E+00 -4.188017311211E+00 -1.037471011797E+01 -6.118499900452E+00 -3.504214544765E-01 2.151001520239E+00 -1.062701327955E+00 4.005229008525E+01
 8.302505397221E+00 -1.319861033387E+01 -4.211899755648E-01 -8.119433585867E+00 1.571889800578E+00 -1.665825727274E+00 -4.367679132146E+00 -1.058900186841E+01 6.694531645669E-01 1.072447014157E+01 6.548855421960E-01 -6.920750008965E-01 -5.742130351226E+00 -7.506226087954E+00 -4.092007397439E+00 -2.511415828490E+00 4.650847184571E+00 -3.054533687077E+00 -4.612494485487E+00 3.571924916165E+01
 1.047472643660E+00 -2.284671381866E+00 -2.551159664192E+00 3.072228566503E+00 -7.553311352133E-02 -3.465380301244E+00 8.011052787448E-01 2.495910454662E+00 -6.424985106945E+00 -6.023720674089E+00 6.457847145070E+00 -4.859987404031E+00 -4.743629903508E+00 -4.681444805201E+00 -3.665781697102E+00 3.829189070612E+00 -8.585232287587E+00 -7.130295504780E+00 4.010612408139E+00 7.157409383751E-01 3.378903143214E+01
 -1.321431242502E-01 -3.176067347121E-01 2.850810918597E-01 1.027667800008E+00 -4.905555674134E-01 -4.413633275954E-01 -4.710612147833E+00 8.136955185758E-01 8.490203257835E+00 1.497616322045E+00 -1.885541422744E+00 -8.485093429845E-01 -4.553234365029E-01 7.053539280155E-01 -9.611438843152E-01 -4.617438573246E-01 2.332232070585E-01 -6.230835723582E-01 -1.032671158392E+00 2.823396378131E+00 -6.334416046147E-02 6.318389510204E+00
 7.181149339807E-01 -7.666439400111E-02 7.158511421918E-02 -2.199186982160E-01 1.206802430362E-02 2.119722347133E+00 2.151576233388E+00 1.544830784743E-01 -2.740997211217E+00 -3.356245340549E-01 -2.034429913481E+00 -1.683885071351E+00 1.104932156941E+00 6.627733325171E-01 5.202362740563E-01 -2.213059768150E+00 -1.868283473776E+00 -1.458047701969E+00 1.212798402904E+00 -6.800506400616E+00 -2.464208274273E+00 -2.302474443044E+00 9.881447641241E+00
 1.084566881236E+00 1.198548080799E+00 -3.995853990367E+00 1.931458711309E+00 1.530649487030E+00 1.991500893848E+00 9.692186750283E+00 -3.527381664459E+00 -1.269520382787E+01 -3.625998827125E+00 -5.267577993737E+00 -1.910191483024E+00 -2.459697025702E+00 -1.303395467247E+00 2.442823618151E+00 -1.171347803776E+00 -1.870466337817E+00 1.866471240566E+00 -1.986125545282E+00 1.563701579368E+00 -2.726713231766E+00 -4.440598347838E+00 4.117945508192E+00 2.620245864385E+01
 -7.255700912911E-02 3.778204936217E+00 -3.176511490614E+00 -4.297223560320E+00 -1.648276881739E-01 -2.946625628109E-02 -5.126896720846E+00 5.161901373868E+00 -1.185466662530E+00 -2.227492584108E+00 -8.951579929339E+00 2.026434749225E+00 6.729641216977E-01 2.125460733621E+00 1.398001496177E-01 3.463823357121E+00 -1.342091386885E+00 1.498872864977E+00 4.450373431891E-01 1.754396403076E+00 -1.891987457727E+00 -2.083891804021E+00 -5.630518989058E-01 -1.203415257255E+00 1.171070044233E+01
 -1.159708114794E+01 3.801612368644E+01 -2.380510888367E+01 -1.012781312177E+01 -6.855072326041E+00 -5.291383963061E+00 6.339708347002E+00 -9.396795404096E-01 5.724616672581E+00 -7.253437608590E+00 -6.133494387918E+01 1.631738029801E+01 4.809145228331E-01 -1.437065107992E+00 5.305208514245E+00 2.532227967472E+01 -3.429948899267E+01 1.756828375696E+01 -2.994570527759E+00 -5.335439383066E+00 8.920479051854E-01 3.983969835029E-01 3.148957562705E-01 6.473784244278E+00 1.685181382820E-01 7.658838114945E+01
 3.208216932507E+00 -8.791137731465E+00 6.687301433752E+00 -3.115276698301E+00 6.858726558897E-02 3.237585080422E-01 -1.781117820548E+00 -9.630091284122E-01 -2.103837181794E+00 1.097707189122E+00 1.689452120880E+01 -1.439939998966E+00 2.027179597254E+00 3.929528511001E-01 -1.173044157347E+00 -2.745058753541E+00 9.322552415245E+00 -3.809978535624E+00 8.030569250316E-01 1.878544731707E+00 -2.304267979009E+00 -1.775912712468E+00 2.065955787890E+00 -5.784421840855E+00 6.708125464353E-01 -1.833153265074E+01 1.262968838492E+01
 2.808363859993E+00 4.814116643858E+00 -6.059692654072E+00 -5.294176756403E+00 -6.224526217650E-01 9.692999255156E-02 -7.574514426906E-01 -7.863315121401E-01 -5.145279381124E+00 -8.646244278227E+00 1.371502022368E+00 1.916013631102E+01 9.160945487778E-02 -3.168266981609E-01 2.156255961816E+00 -1.144956494313E+00 -8.385419855477E+00 2.515471904310E+00 -1.038571835900E+00 1.748385063219E+00 -3.792577187376E-02 3.271189606559E-02 4.467076151574E-01 2.178970464150E+00 -2.484463585913E+00 -7.369152602828E-01 1.610392794509E+00 1.643317918251E+01
 2.633203262337E+00 7.286488825578E-02 -1.305333812831E+00 -4.649096020720E+00 -8.914961043113E-01 -7.582111633327E-01 5.379040872001E-01 -7.884595917651E-01 -5.134266672268E+00 -1.561163149328E+00 3.188050493750E+00 1.009711933336E+00 5.498422429132E-01 -1.803540915688E+00 9.215252470555E-01 1.220913933789E+00 -1.136303434219E+01 2.245918612680E+00 7.459795697161E-01 8.329123849306E-01 7.529543419157E+00 2.211215262909E-02 -2.457836509324E-01 -2.915807436409E+00 -1.966930681760E+00 -4.717711362805E+00 -2.537434749715E+00 2.467234603223E+00 1.571619820076E+01
 1.223148272357E+01 -3.464389832761E+01 2.177677158575E+01 -2.351930171983E-01 4.418724543710E+00 -1.817735178783E-01 -7.152731701237E+00 -3.806163094495E+00 -1.066736536149E+01 2.516151850918E+01 3.724588016639E+00 -5.562437883822E+01 1.047261911220E+00 5.414126206846E-01 -2.793382241933E+00 -1.928973092450E+01 2.912439291098E+01 -1.495888460002E+01 1.183054307769E+00 5.098191374234E+00 -6.604605430704E-01 3.786709983260E-01 -5.483067726808E-01 -5.390870022537E+00 3.150926814152E+00 -4.853295893792E+00 -3.025258633118E+00 -1.647525962129E+01 9.443546223288E-01 7.152560217253E+01

