#BIOSYM hessian 1
@Type: Hessian Update
@Units
 distance: 	A
 energy: 	Kcal/Mol
#header
@natom 19

#label
L1      L2      L3      L4      L5      L6      L7      L8      L9      L10     L11     L12     L13     L14     L15     L16     L17     L18     L19

#element
Li Li Li Li Li Li Li Li Li Li Li Li Li Li Li Li Li Li Li

#matrix
57
 1.915256516317E+01
 -7.398976527296E-02 9.680013893820E+00
 6.899245253491E+00 2.099150376501E+00 1.253028433720E+01
 3.903146248533E-01 -1.020730589838E+00 2.803782315243E+00 2.176174714168E+01
 1.640912000673E+00 8.867339032926E-01 4.266107866812E-01 2.445248253707E+00 6.829064910078E+00
 4.850704481930E-01 8.865623402038E-01 -2.333055565577E-02 -1.090302473787E+00 -2.963035144079E+00 1.135307545882E+01
 -2.028664501470E+00 -1.444821851363E+00 -1.786400621455E+00 -5.070256676627E+00 -1.952299548986E+00 3.581414352592E+00 2.664509545673E+01
 -3.829141302709E-01 1.614538847867E-01 1.612340356937E+00 -3.811181843449E+00 -2.655728941310E+00 3.093592325280E+00 1.934193766943E+00 2.004030143285E+01
 1.425614704790E+00 -1.994401504619E+00 1.003926650981E+00 1.971886467911E+00 2.189959369764E+00 -5.355295602631E+00 2.213227828725E+00 -2.663678633590E+00 2.682003785170E+01
 -3.070858023353E-01 1.737203796687E+00 2.511437643661E+00 -8.482530609676E-01 7.712286071782E-01 -5.864980086908E-01 -2.330540845604E+00 -2.707444573931E+00 -1.466169968453E+00 1.186237796841E+01
 -1.043835096480E+00 -2.421570048059E+00 -1.680996847200E+00 -8.396869003106E-01 6.840415593962E-01 -3.700088456205E-01 -2.284659760281E+00 -7.085432022685E+00 3.423632418519E-01 -3.040175163355E+00 1.896006817517E+01
 -1.537217360703E+00 -1.965252737132E+00 -1.066500616078E+00 -5.998629618186E-01 9.965395942116E-02 -6.631797026266E-01 4.487982102021E-01 -4.817013470286E-01 -1.141322447026E+00 1.191279561977E+00 -1.582928544678E+00 1.718277507714E+01
 -5.107642651345E-01 -5.597919753866E-01 -1.920740772744E+00 1.605349630349E+00 5.017816452732E-01 9.826218085415E-01 7.460493049689E-01 -6.837970754821E-01 1.064136353212E+00 -3.636949787809E+00 -7.858343495928E-01 3.121560369778E+00 1.637718163469E+01
 -2.105451980394E-01 -1.146373572492E+00 -1.608322579213E-02 1.033301040815E+00 2.123845731393E-01 1.020322617692E-01 -6.879160358161E-01 -1.106439029425E+00 7.185315197249E-01 -1.679104078843E+00 4.620060173949E-01 6.021700033797E-01 5.852436315850E+00 2.326318665156E+01
 -2.122223414794E+00 -1.685213566506E+00 -2.231301886001E+00 -2.952119326374E-01 -9.745517439701E-01 -1.110914770032E+00 -4.828106044306E-01 -3.619589423728E-01 2.962203600128E-02 3.984886767838E-01 1.349807384449E-01 -3.947783425812E+00 -1.451832677221E+00 -1.738340573796E+00 1.381817337107E+01
 -3.506511560909E+00 -2.875309653952E+00 -1.278177257832E+00 -2.863180791660E+00 -3.215432124618E-01 -1.053759072565E+00 -1.203324606424E+00 1.405646348292E+00 -9.641938766445E-01 -2.489368113756E+00 4.552802819143E-01 9.654120224114E-01 2.098151833166E-01 1.069434147045E+00 -1.222460828604E+00 3.129559386827E+01
 -2.687190490147E+00 -8.871608703163E+00 -2.381092131290E+00 -9.985273333439E-01 -1.514359070628E+00 -1.614911202602E-01 3.092460997963E-01 -8.086658192842E-01 -1.461457892744E+00 -1.417348679817E+00 9.422477726100E-01 1.683037888548E+00 3.653279942317E+00 -4.156874749031E+00 2.732530320376E+00 2.567300285665E+00 2.427268908848E+01
 -1.508160328792E+00 -4.027006252397E+00 1.143547808551E+00 -2.048386158737E+00 -3.334645924999E-01 -1.853019953182E+00 7.746089434954E-01 6.800197640937E-01 4.277332469106E-01 3.635553294674E-01 2.969637183773E-01 1.117975699959E-01 -2.277887000172E+00 3.229805275980E+00 -1.644978960592E+00 1.550012188400E+00 -9.481611974488E-01 2.535136583798E+01
 6.149235298492E-01 6.150328444155E-01 -9.488612698298E-01 -3.069833194208E-01 -1.225415040314E+00 -8.172294177556E-01 -3.515012610100E+00 4.542359233653E+00 1.268891859283E+00 -2.132402293013E+00 -1.484802744730E-01 7.865080693047E-01 1.434730338941E+00 6.634126959214E-01 6.772427075383E-01 -1.937488652562E-01 -2.199988779476E+00 -4.666789571089E-01 1.508554665513E+01
 4.434194506867E-01 -1.539602228253E+00 8.481261922704E-01 1.579171689239E+00 4.677215474127E-01 -2.904502188652E-01 3.424184701304E+00 -2.629513653729E+00 -2.643924687309E+00 -1.800887221588E+00 -1.839338912030E+00 -1.173087345754E+00 -1.510910819430E-01 -6.098287877390E-01 -1.293684891620E+00 2.419497371456E-01 3.871949809999E-01 -7.682357625476E-01 1.045864153889E+00 2.004950658181E+01
 -1.769775247245E+00 1.588457192361E+00 -3.223344866801E+00 -2.858100775892E+00 -4.821026304044E-01 3.481236628587E-01 2.786316432367E+00 -2.838839996352E+00 -9.568872607627E-01 -8.848090200872E-01 3.009409026471E-01 1.306463754130E+00 1.729323211477E-01 1.525724902616E+00 3.474019652463E+00 1.243748826273E+00 -2.237128096101E-01 -1.271975821524E+00 1.917839740276E+00 5.044925291476E+00 1.967300672931E+01
 -9.281577117468E-01 2.332861794557E+00 -1.633896360100E+00 5.544379876819E-01 7.465995216280E-01 3.725531663639E-01 -7.969496829014E-01 1.219421354912E-02 1.081348204889E+00 1.383309990685E-01 9.759025823392E-01 1.470833892828E+00 -1.203310201125E+00 5.616868907559E-01 1.218124955696E+00 -2.387544270314E+00 -6.457782432990E-01 -5.504114558257E-01 -6.834279252048E+00 -4.270313288014E+00 -1.143580544059E+00 2.162463382772E+01
 -1.196431447121E+00 2.420054449149E+00 -8.915886936086E-01 2.782389252360E-01 -1.185250096429E-01 3.725603723348E-01 3.893675668453E-01 -1.975361628002E-01 2.278604893326E-01 1.165371558941E+00 -4.377058773424E-01 -1.100242968865E-01 2.436615807652E+00 -7.472969325740E+00 -1.754354696940E+00 -7.119883811103E-01 -1.845959818768E+00 -1.573008644321E-01 -4.553485195982E+00 -2.684905547101E+00 -1.537890951012E+00 -1.444591650365E+00 1.402267774366E+01
 3.271155783868E-01 8.101105157871E-02 -8.440420398190E-01 1.894865405052E+00 -8.218043391442E-01 6.369593506267E-01 -8.061155389180E-01 -3.719791579070E-01 4.278320733617E-01 -2.080761341645E-01 6.205540934733E-01 2.572819463358E-01 2.713437577579E-01 -2.579581480589E+00 -1.343491191652E+00 -7.565547649895E-01 -4.165039306002E-01 -8.662910748984E+00 -9.202145994236E-01 -1.059579238521E+00 -1.489500744989E+00 -3.182320071405E+00 5.918217970951E+00 1.402815972773E+01
 -8.412018571136E-01 -5.027097876526E-01 7.701435523713E-01 -6.353513846860E-01 2.621747817480E-01 7.104369726180E-01 -3.443346611399E+00 -1.198182271982E+00 2.381737072275E+00 -1.040821804951E+00 5.028792035616E-01 1.796029697513E+00 -2.693908593139E+00 -2.510176456943E-01 -3.584471783893E+00 1.513985542001E-01 3.542361187519E-01 1.084027924302E-02 -1.242857936481E+00 6.627521172524E-01 -1.200644477678E-01 -4.014895300126E+00 2.295963039019E+00 -1.299221884813E+00 1.382648452843E+01
 -6.788477052797E-01 1.399103590891E+00 -6.127638418155E-01 -5.669132060101E-01 -1.957232556773E-01 9.394470004164E-01 -2.043371326886E+00 -2.178847478710E+00 9.618808463936E-01 1.197657488881E+00 -1.945840058342E+00 -1.740732385043E+00 -1.022007375591E+00 -2.373423974481E+00 -1.148384019398E+00 -7.663062234317E-01 -4.213784763552E-01 -4.423052533894E-01 6.077395662683E-01 -8.049832943624E+00 1.098026237331E+00 5.055976644386E-01 -2.475051323232E+00 7.773044750866E-01 -1.641980639781E-01 1.701478989365E+01
 -3.361079414979E-01 -5.813039583190E-01 -1.117646496745E+00 1.066252503576E+00 -3.228807252542E-01 9.040757327389E-01 2.866592798089E+00 1.431287003524E+00 -2.819613742568E+00 1.615894811544E+00 -3.064871102064E+00 -4.693042642789E+00 -2.264044078850E+00 -1.984438777968E+00 -2.904226355805E+00 7.489373832038E-01 7.998977253109E-01 -1.294647779485E+00 -1.046756559305E+00 1.095005577443E+00 -9.658163735274E-01 3.119916671182E-02 1.161797505424E+00 -9.615031391143E-01 1.636899975910E+00 -3.243605306290E+00 2.391186857260E+01
 2.890352339126E+00 9.911219513037E-01 -7.504743027298E-01 3.888258158632E-03 -3.403994420239E+00 1.109753079343E+00 -7.348629780194E+00 -3.264519189241E+00 -5.004017221397E+00 -9.370245504706E-01 4.511681993037E+00 -3.183103015590E+00 -5.308424727769E+00 -5.705688707279E+00 2.919418791266E-01 -7.796059211514E+00 -1.723684522726E+00 -5.752674365170E+00 -2.018457557092E+00 -3.467811672012E-01 -5.187685730460E+00 -5.246907297458E+00 3.288112257404E-02 8.244924199396E+00 -4.210051583145E-01 3.095007741065E+00 -3.274762204447E+00 3.007368054389E+01
 5.700729231161E+00 -7.482253458543E-01 3.467376266268E+00 3.871942605421E-01 -1.122154455660E+00 -1.595012999981E+00 -2.083167564918E+00 2.108022034204E+00 -5.155927458657E-01 4.866444336605E+00 -3.913005160222E+00 6.843191886329E-01 -7.790862054742E+00 -7.262055401518E+00 3.197074455938E+00 -1.564742607274E+00 -2.062059296753E+00 -5.146835675804E-01 -1.484959022898E+00 -1.001091321196E+00 -5.642425960761E+00 2.644153726514E+00 -1.653900914181E+00 -3.465893014754E+00 -5.525399359689E-01 -6.774192069245E-01 1.916747511982E+00 3.991797151294E+00 1.738469604561E+01
 2.791341024751E+00 4.927705277364E+00 2.308359010832E+00 -2.910169024786E+00 -1.432151570148E+00 -7.403585925069E-01 -3.882361563300E+00 -1.002452585024E+00 -3.304231315560E-01 -1.417217769809E+00 8.285728123369E-01 2.313037354872E+00 1.665839895888E+00 5.664145562770E-01 -3.169270157234E+00 -1.212909217300E+01 -4.389877110483E+00 4.842828574353E-01 -1.200526954410E+00 -3.149430840824E+00 -4.056078260890E+00 2.851706299320E+00 -2.587178414178E+00 -6.599903623209E-01 -2.032481884007E+00 3.885183266969E+00 -8.284085324092E+00 1.483337228223E+01 1.671376449015E+00 2.570970459913E+01
 -1.257391154637E+01 3.019819847122E+00 1.757081184614E+00 -9.005717057399E+00 2.870925621256E+00 3.091991931389E+00 4.666637164977E-01 5.236668474578E+00 -2.916587546254E+00 3.042655419664E+00 1.333827368436E+00 1.343102028956E+00 -1.986648232420E+00 -1.236549144242E+00 9.533053228413E-01 2.253620481674E+00 9.007893160419E-02 1.420977936559E+00 -2.164426474487E+00 -1.090017204230E+00 4.508686378938E+00 4.043698690539E-01 -1.213919877044E+00 -2.541367972669E+00 1.111651154311E+00 1.176658197008E+00 4.686485135566E-01 -5.756067298286E+00 -3.771495019333E+00 -1.504935941125E+00 3.284322916886E+01
 3.866109018870E+00 9.646133032970E-01 1.329063060128E+00 1.185790293408E+00 2.557361012651E-01 3.862222409958E-01 4.445339359196E+00 -6.013991385038E+00 5.209650078075E+00 -2.598431661465E+00 1.273307604857E+00 -1.755886240947E+00 2.060498898075E+00 4.073593070223E-01 -1.954333790085E+00 -1.300098340745E+00 -1.863892003655E+00 9.774791349602E-01 7.854391691243E-01 8.875375140406E-01 -1.446014813019E+00 -1.980555424879E-01 -2.896398954917E-01 6.951101778473E-01 -2.091110204789E+00 9.112143714795E-01 7.897194063435E-03 2.033109341442E-01 -2.014425734791E+00 3.795598436641E+00 -3.960083642138E+00 1.160551092482E+01
 2.034347984276E+00 -6.469517979424E-01 -7.926177788388E-01 2.905043833995E+00 -9.635666699775E-02 -2.670581231643E-01 -5.013381289803E+00 4.331925780056E+00 -6.311161057987E+00 -2.623132546637E+00 -8.256227302514E-01 1.489443808680E+00 2.373643821610E+00 -1.541420957661E+00 -6.004681317373E-01 7.359639110029E-01 -4.019538361635E+00 1.727408859905E+00 1.393188764462E+00 7.497175433265E-01 -1.054195265417E+01 2.225517665792E+00 1.080418501335E+00 -1.003200624524E+00 3.601931356429E-01 4.010082251198E-01 -1.643719869026E+00 2.237332924746E+00 5.887321283545E+00 3.643874753118E+00 -7.398422497428E+00 -4.515398718641E+00 3.045342317403E+01
 2.966158698246E-01 -9.819215225511E-01 -3.531062757339E-01 4.314331104177E-01 -8.603320360023E-01 -8.071082010169E-01 9.327365831876E-01 -1.294536414835E+00 1.543793102332E+00 -3.024713239855E+00 4.794787024990E-01 -5.909767740161E+00 -2.332395541748E+00 1.147233298907E+00 3.294932896314E+00 -3.855473783786E+00 2.840699238163E+00 2.081122416766E+00 -1.024787354468E+00 1.639964287348E+00 1.289800419777E+00 1.024900709980E+00 1.084070780017E-02 -1.011019237036E+00 9.590188978893E-02 -7.238235742701E-01 1.154537331658E-01 -4.970493978893E-01 3.405649103375E-01 -5.114274681002E+00 -1.876052043216E+00 -7.638955006634E-01 -2.411699200292E-01 1.828073397229E+01
 2.188075255456E+00 -2.576467736432E+00 -4.608344811011E-01 2.108343194284E+00 1.995216421625E-01 -1.205765900710E-01 1.842091703584E+00 -5.599985301068E-01 1.999886895222E+00 5.712992983026E+00 -1.963135990493E+00 4.485623003635E+00 -1.340102158554E+00 -1.979842502728E-01 1.237323994377E+00 1.159776743303E+00 -3.155714463490E+00 -1.968364978825E+00 -4.008389899644E-01 3.437720158724E-01 2.189202454389E+00 -3.173642845577E-02 8.284802880412E-01 1.115829723189E+00 7.016116882645E-01 6.574899274983E-02 1.638645340550E+00 -4.019329525345E+00 4.861313521747E+00 -8.213175431714E+00 -2.876144610930E+00 -1.345435370485E+00 4.493789168637E-01 -4.897011532535E+00 1.522268520553E+01
 -4.594021285243E-01 2.254175234509E+00 1.125092084907E+00 -6.178299888550E-01 2.351299131146E+00 1.545973267332E+00 -7.292525501416E-01 -2.961840678391E-02 3.009751558301E-01 -2.672438939199E-01 2.544118604156E+00 -7.198921401363E+00 -3.163185304321E+00 1.597989263274E+00 -1.418667889610E+00 5.159502776253E+00 1.510771710413E-01 -2.158921036214E+00 5.577472499384E-01 5.199633132875E-01 -4.832563187696E+00 -1.159246349199E+00 -2.140058000029E+00 8.075923625955E-01 -2.005261493314E-01 -1.367727568911E+00 -6.374577311532E-01 -1.055054957514E+00 -3.194021165303E+00 4.001436045195E-01 9.005620522509E-01 1.191757969093E+00 -2.806841682525E-01 3.616228384225E+00 -9.015883995766E+00 1.988137462690E+01
 -1.262740306458E+00 -1.155293762909E-02 -2.337243469331E-01 -2.146963334492E+00 -5.919618479294E+00 -1.313330356320E+00 -1.471769137528E+00 -6.572971414547E-01 -3.199714141079E+00 -6.971848109161E-01 -7.584614256034E-01 9.521547596211E-01 -1.915814951514E-01 2.063956764475E-01 -4.749223148837E-01 -5.746220713960E-01 1.379653597856E+00 2.871310419768E-02 1.402075907719E+00 -9.392876208547E-01 7.744344045900E-02 -1.633319227736E+00 1.547408438259E+00 -1.051710605562E+00 5.752322003902E-01 -7.036292014304E-02 -4.911183364764E-01 -2.610388764696E+00 1.194326526371E+00 5.929315810789E+00 -4.045359827289E+00 1.056112911329E+00 2.616631887642E+00 -5.281541000502E+00 -4.312346039705E+00 -1.640886444284E-01 2.864835036599E+01
 7.046444322578E-01 -1.795557552374E+00 -5.551567816515E-01 -2.995078653624E-01 -2.179285911727E+00 -9.941405009556E-01 -1.848000641046E+00 1.644877471775E-03 -3.209215279472E+00 -2.624368721415E+00 -3.312089738414E+00 4.497105130612E+00 -1.835754434528E+00 -1.468460254977E+00 4.308810217932E+00 4.352118319567E-01 1.662112286315E+00 8.056649204382E-01 -2.804209253782E-01 -9.822211602560E-01 5.102817150733E+00 -1.846217615460E+00 -4.046177039310E-01 5.310360570041E-01 6.057665043706E-01 -1.036381377840E+00 9.379877397381E-01 4.523878748727E+00 1.986662253225E+00 1.669076922796E+00 5.504418189755E-01 -1.397608880597E+00 -4.434653142488E+00 1.377296511808E+00 -2.135055165769E+00 -5.857729892732E+00 3.901091827929E+00 1.468858538665E+01
 -1.909861360009E+00 2.891377293368E+00 -2.363255358942E+00 3.264613692204E+00 -2.394614914884E+00 9.748220569945E-01 -2.675034147550E+00 -2.071703332633E+00 -1.081193236885E+01 2.400851878844E+00 2.122357795679E+00 -2.951606686734E+00 -1.332397815733E+00 7.238171080357E-01 -3.040450020745E-01 -7.370887285901E-02 2.555753816200E+00 -1.576530966585E+00 6.002532146505E-01 -3.624124887943E-01 1.354508117999E+00 3.277976918196E-01 -3.862642036475E-01 -2.122689775294E+00 1.717834474781E+00 -6.366800433054E-01 1.828913319180E-01 3.565939285695E+00 -2.543424492838E-01 -7.377002510302E-01 -2.158490997031E+00 -2.899207592887E+00 8.715672264454E-01 -1.083720525256E-01 -2.741077521592E+00 -7.349140554873E-01 5.269576663559E+00 1.053998430843E+00 2.875810497156E+01
 -3.521529713260E+00 1.230056390104E+00 -3.139621414443E+00 -1.454172323664E+00 -1.076093023287E-01 1.583349353877E-01 -7.087690192447E-02 -8.844750387801E-02 3.722499559421E-01 -9.244110766918E-01 8.412821104712E-01 -1.442204054466E+00 3.157941049670E-01 1.447659650502E-01 -9.697540288490E-01 -8.805400665521E-01 -7.770668893862E-01 -4.441964867466E-01 1.995303883113E-01 -8.684735805933E-01 7.766949531737E-01 9.638664752866E-01 1.201207575953E-01 -5.676469961879E-01 1.902307566774E-01 2.060296878568E+00 8.181739280348E-01 2.184158824259E+00 -3.184318400576E+00 1.764932307085E+00 2.423476825999E+00 -5.411404764618E-01 -1.223864271849E+00 4.513688717473E-01 -4.569954204374E-01 -2.290822174956E-01 -1.374790192749E+00 6.627901482896E-01 9.023007943919E-03 1.621800769294E+01
 -1.613412802980E+00 6.971191149595E-02 -1.304460229949E-01 -2.249910252817E-01 1.408510528630E-01 -1.151204519778E+00 3.219182006929E-01 -8.594598520096E-01 1.066265146317E+00 2.643685352877E-02 -1.092905862057E+00 7.597896580741E-02 -2.290865658116E-01 -2.757411473162E-01 1.919394716195E+00 7.723152801168E-01 -3.990297077023E+00 3.122647438165E+00 -1.039643575388E+00 7.726137481737E-01 -1.714390974474E+00 4.254169361757E-02 1.356977703275E+00 -8.854509086781E-01 -4.434089920625E-01 -3.547350660262E-01 -1.940329649200E+00 -2.955053507012E-01 1.896463102926E+00 1.438094769649E+00 6.664229684453E-01 9.224956918987E-01 3.608318431973E+00 1.052281627668E+00 -1.160842105243E+00 -6.357621204326E-01 5.630624964098E-01 2.950138771869E-01 -1.866505789285E+00 -1.074188180658E+01 1.700834410717E+01
 -3.902047680223E+00 -8.365497481731E-01 -8.010258141507E+00 -1.900449426509E+00 5.204246604206E-01 3.092039444844E-01 -8.559712149952E-01 -2.551640360076E-01 -2.052544840905E+00 -1.324972480918E+00 3.724277357044E-01 -1.488824611509E-01 1.850318607845E+00 -8.673071513924E-01 -5.271043171503E-01 -1.702533405319E+00 2.639004586026E+00 -4.294265304250E+00 -1.241088885634E+00 -4.173795002106E-02 4.499130221566E-01 -1.971503755386E-01 1.104448144373E+00 1.105856752720E+00 2.022299196296E-02 6.553063673489E-01 1.508407858568E+00 7.393866706377E-01 -5.762289996259E-01 -2.270975226424E+00 2.788042387239E+00 -1.428100002445E+00 -1.868210585469E+00 5.381147745935E-01 1.139700681841E+00 -1.245811944310E+00 1.857358239108E+00 -1.621144459459E+00 1.880676461237E+00 -1.221127324287E+00 7.170580250992E-01 1.891593862667E+01
 -4.754830303232E-01 9.338592115928E-01 1.619267443371E+00 -6.322292841312E-01 -1.239300892701E+00 4.079292035615E-01 4.574644776499E-02 -6.033317332862E-01 -3.594280475181E-01 5.825107694054E-01 5.485521223736E-01 -4.395990780911E-02 -2.514743995301E-01 2.881302334354E-01 6.457426559677E-02 -2.166498379731E+00 6.703180494894E-01 1.294735044157E+00 -1.023912578560E+00 -1.929727606406E-01 -1.745317177337E-01 5.861251619969E-01 1.033367253644E+00 1.677177723366E-01 4.774323806707E-01 -1.253422598713E+00 -4.275529575481E-01 -4.819447348283E-01 -7.649741104137E-01 2.263953910970E+00 -9.323780768849E-01 1.296329007626E+00 -1.453992028851E+00 -3.182431365513E+00 1.126751304305E+00 -2.165093711315E+00 2.088811855409E+00 -4.009350794072E-01 -1.516738878325E+00 -1.442423979845E+00 5.012453983510E-01 1.650561222495E+00 2.551661142208E+01
 -1.703428814450E+00 1.148137546766E+00 1.592001066816E-01 4.888450436179E-01 2.272721471358E-02 1.910948296763E-01 9.881421297877E-01 2.581718077165E-01 2.406926419439E-01 -6.937280228257E-01 -4.264708935320E-02 5.437414265576E-01 -3.270702420199E-01 1.195273575080E+00 -6.491727294615E-01 3.791531984590E-01 -6.314875656518E-01 -5.644132384190E-01 -4.193695604502E-01 -3.199563012604E-01 -3.664251567812E-02 -9.119723694821E-02 -5.103980240897E-01 -1.971530302859E-01 9.815082602980E-01 -1.014384189498E+00 -2.252304688167E-01 1.250455487613E-01 -8.077308688388E-01 4.166418782199E-01 -3.675856713212E-01 -3.700432977475E-01 -5.665274920289E-01 1.629329181069E+00 -1.794340370542E+00 3.492359238934E+00 -6.767153318883E-01 -5.302604264425E-01 -9.114639261063E-01 7.933899151501E-02 -6.715540208773E+00 -1.664736320033E+00 5.373656469759E+00 1.795833358225E+01
 -9.619960081492E-01 2.374170317108E+00 7.978799107312E-01 2.382660071030E+00 6.069808409348E-01 5.871483531856E-01 -1.301236293901E+00 -1.493768508158E+00 -3.016163181115E-01 -2.620233109853E-01 1.007360802466E+00 -6.838208227696E-01 1.620591861956E-02 -4.329798793777E-01 -3.197130947046E-01 2.848904513973E+00 -1.719195301648E+00 -6.617604255499E+00 -7.918066541392E-01 1.591682046235E-01 4.093081331564E-02 -5.059149641181E-01 -6.415603291253E-01 -5.836175850739E-01 -3.895498881848E-01 1.654091606454E-01 8.394484383143E-01 2.965081012118E+00 1.758327449479E+00 -1.273353521676E+00 -1.439191659831E+00 -9.533041615553E-01 -9.367040681096E-01 -2.972030215911E+00 2.963173072150E+00 -2.895399028808E+00 -1.173061839067E+00 -9.589572059614E-01 -1.176689970521E+00 1.401529115986E-01 -2.524542002973E+00 -1.377897078927E+00 3.700456424706E+00 3.672714864902E+00 2.107269110304E+01
 -1.451603715086E+00 9.325551949791E-01 7.591433457637E-01 1.749048926869E-01 9.176793542841E-01 -1.817896221780E-01 -8.317012143217E-01 1.106154100039E-01 -5.923785282188E-01 -6.203979627545E-01 -1.619521677135E-01 5.981558466125E-01 8.284520411295E-01 -1.119665232114E+00 5.946791492330E-01 1.624189497141E+00 1.549042104949E+00 1.731333473210E-01 4.633528265811E-01 -8.326522991732E-01 -4.966195725868E-01 -1.529274787917E-02 5.318610571766E-01 8.315752675646E-01 -5.501119704819E-01 6.254236547371E-02 -7.875423051112E-01 -1.994559633501E-01 1.341228912611E+00 1.038610589206E+00 1.245963585121E+00 2.721899013033E-01 5.213543676311E-01 -1.707926597292E+00 4.942266270098E-01 1.078196185631E+00 -2.602569931954E+00 -2.422454628854E+00 -4.254478669858E+00 -1.578848792129E+00 3.225532633398E-01 -5.558249469024E-01 -9.123911228272E+00 2.485915619616E-01 1.784556459601E+00 2.157214050971E+01
 -1.001657248993E+00 -6.538214911245E-02 -1.107527883615E+00 4.032074138390E-02 5.285650642437E-01 6.279727079613E-01 -1.576126641547E-01 -2.140906041405E-01 4.906126545518E-02 2.861989140654E-01 8.677646639562E-01 -1.788657548109E+00 -1.119174426114E+00 4.609927806378E-01 1.773212730955E-01 5.037244564402E-01 -1.326037922349E+00 -2.836777062435E-01 -1.116951366337E+00 3.844221596623E-01 -6.708882393061E-01 4.776259628681E-01 -5.349681610442E-01 1.278992412622E+00 -6.158973207164E-02 3.156377109081E-01 7.212951175960E-01 1.114796856013E+00 -5.601392435491E+00 -8.772196563533E-01 1.938202072326E+00 1.342232716760E+00 -3.992174727344E-01 -1.361747284871E+00 4.525519215193E-01 1.126460798935E+00 -5.788836671342E-01 -9.096214654937E-01 1.094060586103E+00 1.972832394615E+00 -2.653301995473E-01 -2.092160551071E+00 -6.583680513762E-01 1.719535681078E+00 -1.541431912786E-01 -5.822290482153E+00 2.204613931173E+01
 2.899992847091E+00 -5.989401762836E-01 1.917250182473E+00 -3.722814455361E-01 9.856456610157E-01 -9.331419582061E-01 -2.018262656600E-01 -5.698287415656E-01 5.210009746073E-01 -6.279217356576E-01 2.858632028235E-01 5.175163313552E-01 7.902004270863E-01 -5.532258208779E-01 -1.027036208060E+00 -1.366954633042E+00 -9.365012495081E-01 7.410479839336E-01 -7.381274034662E-01 3.556161297234E-01 -1.193609614576E+00 8.878803503873E-01 2.836012215287E-01 -3.226315539011E-01 -5.207580149846E-01 1.714761837308E-01 4.499339563540E-01 -7.671603478554E-01 3.124503568385E+00 -2.767587700329E+00 3.523177928073E-01 -1.523922094563E+00 -3.389390540831E-01 2.214704888332E+00 2.067101563222E+00 -5.949743937647E+00 -3.385796754380E+00 -9.261541894570E-01 -4.638054430092E+00 -6.426988606465E-01 -1.907922090469E-01 6.512240857958E-01 1.500596179000E+00 -3.149739255475E-01 -6.644081227118E-01 -2.335765836346E+00 1.963070431658E+00 2.148529581173E+01
 1.791828413103E+00 -1.227812332893E+00 -1.858542943711E+00 -6.183282822279E+00 2.308883289316E+00 -3.822509253299E+00 3.722793582992E-01 1.294128639495E+00 -5.995282100359E-01 -2.737151867028E-01 -2.420127265025E-01 1.036926372993E+00 -7.170417633387E-01 -2.367741320627E-02 1.113488243287E+00 1.722286911484E+00 1.595866934488E+00 8.993564205780E-01 5.853350818368E-01 -1.225687418947E+00 -2.725793319535E+00 2.234130026316E-02 -1.360705155974E+00 -2.648704626727E-01 -1.441740946365E+00 -5.817718717826E-01 -1.027630509049E+00 -6.551951758215E-01 8.306635820963E-01 -3.433522326012E-01 1.785298320493E+00 6.800554838270E-02 5.254621829456E+00 1.329734433868E+00 1.952483064663E+00 2.526220285286E-01 -2.367149075532E+00 -9.207746561327E-01 -1.631030585039E+00 2.161011371968E+00 -6.870107799429E-01 1.244893858700E+00 -1.337574541150E+00 -1.117801783865E+00 -1.137030356745E+00 -8.519057170786E-02 -2.215648791115E+00 -4.927354163533E-01 1.760003960506E+01
 -3.205739290895E+00 6.227326397984E-01 -1.570344429983E+00 -7.700790322963E-01 -1.115783117560E+00 1.435556685897E+00 2.417040495258E-01 9.474271173460E-01 -2.797266855161E-01 1.801746672072E+00 -5.189310939134E-01 2.811903376987E-01 -2.796628530059E-01 7.990838651252E-01 -3.936068993034E-01 -1.255809331565E-01 2.917154334361E+00 -4.946974182632E-01 2.538716005380E+00 -3.482413951513E-01 -6.840559869156E-01 4.614920603304E-01 -1.417321698009E+00 4.693362460908E-01 -1.745589040491E+00 5.099610679375E-01 -1.869579225618E-01 -1.018222059819E-01 -1.531498680837E+00 -1.866885707977E+00 1.965570033837E+00 -3.905395900460E-01 1.187847820874E+00 -8.348230403389E-01 3.275535922722E-01 6.856428653542E-01 1.579419370380E-01 -4.284697145860E+00 3.335071317585E+00 -4.322548729382E-02 -2.287960126074E+00 1.508645758454E+00 -8.127272784603E-01 -4.186008700000E-01 -3.603771560356E-02 -1.950628080773E+00 -5.174050012545E+00 -1.124650990318E+00 5.779975951655E+00 1.316580875721E+01
 -6.230564471157E-01 -1.065838226553E-01 3.205776760335E+00 -3.221835001106E+00 1.194932718191E+00 -5.510550024932E+00 1.473953994691E+00 5.866155871675E-02 -2.152251153210E-01 1.357962699332E-01 8.329680125391E-02 -5.946777582104E-01 -1.651627497288E+00 -1.914377862323E-01 6.435881130007E-01 -7.537522787421E-01 -1.372149160102E+00 -5.231558502815E-01 -7.733268187753E-02 5.505177521691E-01 1.472382836801E+00 -2.154502585157E+00 -6.891196438969E-01 2.903626274178E-01 2.199816333986E-02 3.857552995914E-01 -5.083471078679E-01 -6.773920352162E-01 -1.494375551494E+00 8.190889659018E-02 3.100277976054E+00 2.358177578005E+00 -1.444744790485E+01 1.391513383270E+00 -8.198479136001E-01 4.156082309120E-01 -1.437393020854E+00 3.833090255383E+00 -6.371229774072E+00 -4.349099194370E-01 1.602412281320E+00 -1.347900126080E+00 -4.140489494266E-01 1.117023626283E+00 8.816852002637E-01 -5.037684496465E-01 -2.494243133662E+00 -2.867310983661E-01 3.337552794984E+00 -3.908243670900E+00 2.555443888535E+01
 -2.991867065665E-01 -5.552839692114E-02 -2.179701941171E-01 -1.754041686782E+00 -1.018962628790E-02 -1.982557317197E-01 -9.577267964268E-02 -2.542621638147E-01 1.539679789116E-01 -4.216409308084E-01 6.440691378813E-01 -5.937209984669E-01 1.007137234512E-01 -1.168483211671E-01 -1.879291519778E-01 8.354701660419E-01 -1.413210505373E+00 6.962710718005E-01 -1.982843408735E-01 8.421885195383E-01 -2.705888565127E-01 -1.197574086420E+00 6.937007941567E-02 -1.600776154376E-01 5.729080987374E-01 4.992639948235E-01 1.114382344658E+00 8.720674053892E-01 -1.317003653770E-01 -1.769583136997E+00 1.868366108422E+00 5.394566299258E-01 5.138495578522E-01 -4.543297946898E-01 -1.267501745878E-01 -1.476285140008E+00 -3.673484457014E-01 -2.727060450328E-01 -2.830836531879E-01 -2.854770732301E+00 7.143860215606E-02 4.417872129356E+00 -2.930212685344E+00 -2.731166659377E+00 2.889662541190E+00 -3.165954064582E+00 3.016654030543E+00 -2.184484905027E+00 -5.693963545218E+00 -2.470816534478E-01 -2.354676641355E+00 1.543030852730E+01
 7.361649586741E-01 -1.589563569676E-01 1.070687764891E-01 1.050736850256E-01 7.188293414036E-02 -2.470269464565E-01 -3.705394544936E-01 -1.162323336259E+00 5.072809273515E-02 3.101188074600E-01 1.580441644252E-01 -6.689323849047E-01 -9.850434576248E-01 -1.217767148388E+00 -1.124082653159E+00 1.698711202930E+00 4.421139305487E-01 5.970609924622E-01 7.817892214187E-01 -7.099691607652E-01 -7.705495032679E-04 1.104290221695E+00 -7.925158014676E-01 -5.836948719195E-01 -3.950457676255E-01 1.825747655990E+00 7.960758598278E-01 1.587419271058E-02 7.921120945401E+00 2.310358197290E+00 -1.320797608651E+00 -1.140231518432E-01 2.817664116090E-01 -2.594373743019E-01 -4.191274631305E-01 -9.938835327100E-02 6.740771434229E-03 3.801652963733E-01 2.485584139051E-01 8.696302677254E-01 8.510432465357E-03 -2.312005686333E+00 -3.195462507510E+00 -7.858714005083E+00 3.595064487130E+00 6.415599575132E+00 -1.450720012272E+01 4.403788283168E+00 -1.245718564338E+00 -5.460386017791E-01 -1.319174105442E+00 -1.641293504310E+00 2.879741507232E+01
 9.015398149861E-01 1.012841214849E+00 1.971422250148E+00 -5.852244336080E-01 5.365535261461E-01 -1.184211305575E-01 1.805109487465E-01 5.267979487481E-01 -3.925167510628E-02 5.856775966708E-01 -9.375220690847E-01 5.999891423957E-01 -4.721408769006E-01 1.048958817510E-02 8.069111920969E-01 -3.809027698772E-01 -5.824974978550E-01 -2.391006543390E+00 -1.435270816985E-01 7.985607615120E-01 -8.917433798424E-01 -5.192754495129E-01 8.246862771773E-02 -8.303127804661E-01 -2.850364759377E-01 -1.685404036937E-01 -2.018187399672E+00 3.076866973704E+00 8.535622112248E-01 1.147110568888E+00 7.524936116453E-01 -5.136648523972E-01 2.463315368728E+00 -1.809029877340E-01 -9.672982095045E-01 -2.512690172159E+00 -1.174070641570E+00 8.912219793040E-01 6.450631369560E-01 3.531801128478E+00 3.460324260941E-01 -6.391666737166E+00 6.098197550714E-01 1.184921746085E+00 -6.396554045509E-01 -1.960514743490E+00 1.938601241848E+00 -2.319388881663E-01 -4.482583937611E+00 -4.883343696965E-01 -3.350173545519E+00 -4.773102028395E-01 -6.153306178692E+00 1.993265824098E+01