#BIOSYM hessian 1
@Type: Hessian Update
@Units
 distance: 	A
 energy: 	Kcal/Mol
#header
@natom 12

#label
L1      L2      L3      L4      L5      L6      L7      L8      L9      L10     L11     L12

#element
Li Li Li Li Li Li Li Li Li Li Li Li

#matrix
36
 1.814097316763E+01
 5.721390238360E+00 3.005156090631E+01
 -2.576945582718E-01 -3.317847218253E+00 7.735524639351E+00
 -7.026173535937E+00 3.351880326264E+00 -5.317664246470E-02 1.785313858134E+01
 -1.512144806773E+00 1.790986720885E-01 1.464236380367E-01 -3.969821938410E+00 3.129691523638E+01
 -8.081415754468E-01 4.654719279613E-01 -1.930563844416E+00 2.343013213465E+00 -5.244252864619E+00 8.323053352012E+00
 -6.853509189423E+00 -6.853464666382E+00 2.792964457628E+00 -2.771069725982E+00 2.724143576197E+00 -4.611606712457E+00 2.948217159592E+01
 -7.399891757979E+00 -5.951050992993E+00 3.615419457105E+00 4.690254934256E+00 -8.716425240943E+00 3.190143349420E+00 -3.118032709601E-01 2.978172955435E+01
 2.317766865193E+00 1.108879146983E+00 -3.231234120551E+00 -3.194446339101E+00 2.589092022698E+00 -3.611049494205E+00 2.933675971810E+00 7.560725234667E+00 3.600007654942E+01
 -6.027893085955E+00 -6.047304615060E+00 -1.814592085427E+00 -3.711395184156E+00 7.590035048853E+00 1.870205507856E+00 2.639644506657E+00 1.227419685960E+00 8.581974493637E-02 3.138332936488E+01
 -3.384093423551E+00 -7.687583859851E+00 -2.252782663997E+00 2.409027996828E+00 -5.914875900427E+00 -1.900206490338E+00 2.683841888740E+00 3.250955443286E+00 -2.474431273465E+00 1.126475761726E+00 2.411432326487E+01
 -3.202485680894E+00 -9.807313623592E-01 -2.003284410466E+00 2.184836907545E+00 -2.917266732573E+00 -2.934690054188E+00 2.498724191909E+00 -3.591175827660E+00 -1.686445146535E+01 1.242134582779E+00 -4.144985433599E+00 3.806746710791E+01
 8.880272004906E-01 1.401322460859E+00 -4.016011241658E-01 -3.213187476587E+00 -1.587588784078E+00 6.105694569373E-01 -1.218583713209E+01 6.821918838716E+00 1.354102963480E+00 -9.463725197465E+00 2.574729686066E+00 -5.175792867390E+00 3.530414217830E+01
 2.569786461324E+00 -1.287880896357E+01 2.214498019905E+00 -6.277899544403E-01 2.263581607939E+00 -3.937095827660E-01 3.994813754379E+00 -1.179944622545E-01 8.465717315862E-01 2.848257030871E+00 7.580009692066E-01 3.893552774014E-01 7.451432486072E+00 6.057293407354E+01
 -9.256802926361E-01 1.811122944187E+00 -2.649070743486E+00 -9.632840412011E-01 1.713252243836E+00 2.000134010460E-01 2.320153812951E+00 -2.280276609669E+00 -1.582677765783E+00 -5.997786867922E+00 1.570979197049E+00 -3.491597816740E+00 7.528274544358E+00 1.183711283793E+01 2.074160940162E+01
 -1.107414323183E+00 6.200725975313E-01 2.734630544906E-01 -2.548522866000E+00 -4.789246285082E+00 3.188191049422E-01 -9.925361487125E+00 -1.508185450727E+00 -3.251025563548E+00 -1.061079860984E+01 -3.197586897533E+00 1.303375415043E+00 1.245078317271E+00 8.524103302003E+00 4.313530009696E+00 5.833722128110E+01
 -8.989477374079E-01 5.408319803401E-01 -4.944290025579E-01 -4.674112038175E+00 -1.517886437289E+01 2.531009824831E+00 -3.608612870055E+00 1.303743624667E+00 -2.776900306306E+00 -6.668088053059E+00 1.212572350341E-01 2.580003035762E+00 -3.959304752630E+00 -3.070565189715E+01 -1.300327688870E+01 -1.449801457409E+01 7.264599027811E+01
 3.398139038825E-01 8.909928597150E-01 1.136983020163E+00 -6.267903894709E-01 6.100193712062E+00 -2.470756420952E+00 -6.297224054997E+00 -2.151819063865E+00 -5.653127753683E+00 5.499652424124E+00 7.192023491756E-02 -2.436023090924E+00 1.665382938202E+00 -2.745338516515E+00 1.989017612516E-01 1.176733671743E+00 1.220503834250E+00 4.534469501018E+01
 1.919106635935E+00 2.821433176093E-01 1.079667351271E-01 4.642741838556E+00 -5.088527655885E+00 -3.010469320233E-01 2.153006173372E+00 -8.912140396812E+00 -3.721991144238E+00 -5.864895566613E+00 -8.781011786673E-01 1.109319579247E+00 -8.532831695674E+00 -3.665904042794E+00 -3.020534180765E-01 -2.327392927247E+01 6.955961399063E+00 -8.221733135848E+00 1.062939982011E+02
 5.878634666373E+00 -2.284891618564E+00 2.056554954295E+00 -2.565595811404E+00 -3.648370617994E+00 -6.258052680988E-01 1.849410475650E+00 -1.500554520973E+01 -1.143414732443E+01 7.295660377025E-01 -1.039798165649E+01 1.197285931054E+01 -1.136191836449E+01 6.850616067768E-01 -4.099018301020E+00 2.642902651190E+01 -2.145665473398E+01 3.512249645043E+00 8.046724653938E+00 9.151664881583E+01
 3.063866432661E+00 5.523344377076E-01 4.437807791613E-01 -2.990400143051E-01 -8.106261513003E-01 6.079958004286E-01 1.473730887270E-02 -7.536365643049E+00 -1.655108804797E+00 -8.807112466311E-01 8.651730894726E+00 -8.168924381757E+00 -6.668844862407E-01 2.891783612433E+00 -8.046637516521E-01 1.736335428932E+00 -5.433952162223E+00 6.465987377712E+00 7.935910225278E+00 8.827903057630E+00 9.950716953702E+01
 1.919098410467E-02 9.242869487068E-01 9.925661359122E-01 -2.993767766676E-01 1.187830868631E+00 -3.552559916845E-01 -8.875660849777E-01 -2.171927356455E+00 -8.738242159831E-01 -4.366931548460E-01 1.569658543425E-01 -1.161084103836E+00 -7.732959051508E-01 -8.646083225044E+00 -4.451570767210E+00 6.071751818943E-02 4.954534803432E+00 2.234546816552E+00 -1.429361378581E+01 1.139163007961E+01 1.380765778191E+01 2.406429304017E+01
 -2.755417872855E-01 -3.326069456272E-01 -9.716776562346E-01 1.367082419508E+00 -2.489181247224E+00 1.258208940639E+00 4.949017485399E-01 -2.349762097404E+00 -1.197988500055E+00 -2.348202748883E+00 2.108237015415E-01 -2.501116733798E+00 -7.778761373841E+00 -4.132378913113E+01 -1.813489771144E+01 -1.172819790414E+01 3.143260871589E+01 -3.103163165135E-01 1.557749676183E+01 -4.465387500442E+00 -8.071426248153E+00 2.011966385197E+00 5.616567618548E+01
 -7.406120136656E-01 -1.318852723974E+00 -1.065720056792E+00 1.273205490124E+00 -1.651169813769E+00 5.853079930962E-01 8.657494450089E-01 1.650972511471E+00 -1.114945757090E+00 9.282034974050E-01 1.532883595698E+00 -2.653521485920E-01 -6.018601025405E+00 -1.913044482129E+01 -9.419793378571E+00 -6.617518566874E+00 1.539901552160E+01 -8.212703485459E-02 1.142184942354E+01 -5.602816321773E+00 -9.863970279947E+00 -9.484439913462E+00 2.463393882259E+01 2.630741543520E+01
 -1.005493754069E+00 1.980035892439E+00 6.142593878189E-03 -8.416380929768E-01 2.473862868424E+00 -1.900228944734E-01 8.492985700463E-02 2.329564582336E+00 1.202946162104E+00 -4.251453758223E-01 -2.246388040940E+00 1.335514132053E+00 -1.743552820058E+00 -8.271526749313E+00 -3.287341339269E+00 -7.604272369307E+00 1.804611041744E+01 8.098316003014E+00 -2.560395072599E+01 -2.644151645721E+01 -3.560343611572E+01 -1.058517048422E+00 6.786517213532E+00 1.636306865288E+00 4.236344455727E+01
 7.983318479431E-01 -1.175309724631E-01 -1.112886878600E-01 -8.265112150151E-01 1.154501447645E+00 -2.673049894252E-01 1.985563057127E-01 -7.345890582405E-01 2.334738100915E+00 5.118927524915E-01 -1.542072948759E+00 -1.215647668235E+00 3.862785083326E+00 1.946457331933E+01 9.447521443795E+00 3.723829798584E+00 -2.907403815374E+01 -3.143359515765E+01 -3.450264827180E+00 -1.472871306474E+01 -2.871019468813E+01 -5.897482873172E+00 -1.992761368700E+01 -9.912560767306E+00 2.932896769101E+00 6.284909035021E+01
 -5.199594772167E-01 2.036488495709E+00 -2.957978534282E-01 -2.257498575678E-01 1.090128571751E+00 -2.668926272156E-01 -1.833631371549E+00 3.138238216681E-01 -6.578902081290E-01 -2.401547800901E-02 5.635389859891E-01 1.140357337572E+00 5.547839528714E+00 9.195152107360E+00 5.784694229135E+00 -3.574538878483E+00 -5.201729614500E+00 -1.668607930763E+01 -2.051450545131E+01 -2.605497973551E+01 -3.960372103070E+01 -2.250060907955E+00 -1.118976043367E+01 -2.140915625557E+00 2.781497597453E+01 3.744745639834E+01 5.665746110034E+01
 1.619517562456E-02 -3.047547229970E-01 -1.477321600183E+00 -4.231824777350E-01 1.109514455772E-01 8.854202520677E-01 -1.475349442499E+00 2.671627242309E+00 2.091705296268E+00 1.724204546170E+00 8.552639382224E-01 -5.554776112588E-01 1.006275363629E-01 -3.201140376183E+00 1.186001489886E+00 -3.765398160302E+00 6.185868436290E+00 -2.293147091494E+00 -2.085905008690E+01 -1.702197327023E+01 2.332490902439E+01 1.986228977626E-01 3.534454765974E+00 -1.494026472717E-01 -2.407019548403E+00 -4.645431524250E+00 -4.343160284159E+00 3.812576111525E+01
 -2.434986401197E-01 3.785089772684E-01 -5.687040130478E-01 -1.017813848755E+00 4.295487870005E+00 4.582759750722E-01 1.118686040748E+00 -7.795890839281E-01 2.989686881839E+00 -4.527556082623E-01 -1.910032611827E+00 -1.435852246467E+00 4.589163270283E+00 8.820632774192E+00 5.459932793775E+00 -3.128227495446E+00 -1.111355916085E+01 2.431714193119E+01 -1.141907445388E+01 -4.618482662100E+00 2.189286371556E+01 -1.614691616894E+00 -1.145459056515E+01 -5.893678958675E+00 8.347916193081E-01 -1.585016938484E+01 -9.680323595813E+00 1.983500049589E+00 4.248414580127E+01
 -9.980508420692E-01 -7.592150059049E-01 1.611961480075E+00 5.762857577581E-01 -1.835883706039E-01 -5.844767100715E-02 1.359370173745E+00 -1.238745531145E+00 -1.918420363401E+00 8.573559807766E-01 -9.416551567254E-01 -1.619729281339E+00 -4.585023968783E+00 -8.979491178144E+00 -6.201633367684E+00 3.818941215907E+00 5.577930175236E+00 -2.367323327204E+01 2.054156357309E+01 1.653997133580E+01 -3.037900701431E+01 1.287689143645E+00 1.074821751651E+01 3.742600005406E+00 -1.529126641830E-01 1.751213263156E+01 4.890341184244E+00 -2.356181395736E+01 -3.112951996872E+01 5.288768025266E+01
 6.183205504146E-01 -4.100112716689E-01 -3.868776899659E-01 -2.878148911718E-01 1.155183681204E+00 1.049986456082E+00 -1.608605046861E+00 1.506962925707E+00 -5.412349133724E-01 5.242098681955E-02 -5.707678317840E-01 6.749678175425E-01 -8.006578666125E-01 -1.578656120470E+00 8.819799288824E-01 -3.053333477788E-02 -1.335839806754E+00 -2.225674112310E+00 -1.592141360407E+01 3.306942565374E+00 -1.087173788622E+01 -9.813599371847E-01 -2.368328645304E-01 2.212161643872E+00 2.110159244286E+00 -6.775305793966E-01 2.288882709031E+00 -2.793739413844E+00 -2.492942822386E-01 -3.213019620341E+00 2.543514524058E+01
 -1.078776936109E-01 6.821371288408E-02 6.229573985050E-01 1.197773821902E+00 2.680432687725E-01 -9.828191543234E-01 -3.554363837473E-02 -2.980578827763E+00 5.198454497415E-01 2.723195600752E-02 -8.985619358084E-01 1.588521916642E-01 1.246095577179E-01 -3.529120171470E+00 4.921988824561E+00 -1.208626116574E+00 -5.507448232188E-01 1.128863335493E+00 7.041950313263E+00 -5.089139436405E+00 1.072888695732E+01 9.974265662913E-01 -1.036017110493E+00 -3.640835272434E+00 -9.932258725357E-01 1.477731274004E-01 -9.952710435252E-01 2.722412177617E+00 6.664098574396E-01 -7.343659224679E-01 -2.521641123623E+00 2.060814223831E+01
 1.698240179318E+00 -4.006840876506E-01 1.335333245229E-01 -7.842334478225E-01 -4.283980472696E-01 1.519719945541E+00 -8.285218098958E-01 7.278563058962E-01 -8.851836797894E-01 -1.597203451187E+00 -6.627876656896E-01 -2.005379748855E+00 1.871950946353E+00 3.726621399786E+00 -2.207815866311E+00 3.639436076919E-01 4.652481234498E-01 -1.862319897846E+00 -1.295818376446E+01 5.000569705944E+00 -1.418939520876E+01 -3.058254745075E+00 7.900848085263E-01 -1.015909937881E+00 2.076454954790E+00 3.323251727878E-01 -8.819490152192E-01 1.300285632568E+00 -3.116711028410E-01 2.181004289384E+00 1.461870776558E+01 -6.561201280420E+00 2.271537523130E+01
 4.186701743666E-01 -6.655965056616E-01 2.181607234414E-01 -1.373519392688E+00 1.705321981341E+00 -8.119398852646E-01 1.347545976009E+00 1.056200023649E+00 1.596505172451E+00 7.409467701731E-01 4.706322465503E-01 -2.540323627392E-01 -8.247871387815E-01 6.027074335948E-01 -3.022230594579E-01 -7.767866935566E-01 -4.995552240510E-01 6.501230266007E-01 -6.591681114351E-01 -2.409310872167E-01 -1.561606452924E+00 -5.612401747171E+00 -7.404882615896E+00 4.673097801441E+00 -3.868943923516E+00 3.468928461854E+00 -2.366076506019E+00 -8.441672141490E+00 9.599214965668E+00 4.069615207816E+00 -5.791921927576E+00 -7.244489948080E+00 -2.703185867859E+00 2.484203815567E+01
 -1.146147367273E+00 -1.965740895830E+00 -9.391242258969E-01 6.656253074419E-01 -3.509910723354E+00 1.510988331645E+00 -2.254929344195E+00 2.299106350949E+00 -6.607116417066E-02 1.455472751653E+00 -1.042517007742E-01 1.685706189322E+00 -2.138388108005E+00 -4.009419725409E+00 7.555592257005E-01 7.610525135735E-01 2.035081307788E+00 -6.007964981244E-01 -4.490263890481E+00 -1.050654392217E+01 -2.982937782511E+00 -3.294456434645E+00 -4.430160318442E+00 3.933548227866E+00 2.568877757418E+00 -1.641210974803E+00 2.475476042206E+00 7.109221838083E+00 -1.091876181148E+01 -6.411670525397E+00 1.611484708181E+00 -7.674419899646E+00 -2.677963332520E+00 -8.475497317512E-01 4.042623231317E+01
 3.293705914537E-02 -8.795941412125E-02 1.138877858651E-01 -2.306206369582E-01 -4.037882082496E-01 3.630961986084E-02 7.856085869752E-01 -2.605580048408E-01 1.174012863350E+00 -1.690626087004E-01 -1.420422456472E-02 5.816079527261E-01 -1.730216906061E+00 1.478891123167E-01 -5.679661028229E-01 1.379415004582E-01 -8.634225408406E-01 -2.829003913780E-01 4.902904309672E+00 -9.334105841211E-02 -2.360143022404E+00 3.312030767183E+00 4.946733511600E+00 -5.666589214416E+00 -2.936943672007E+00 4.576418211207E+00 -7.939608183412E+00 3.592001496552E+00 -6.098151411862E+00 -1.463116241991E+00 -4.488142098773E+00 -5.166901484113E+00 -3.501679436082E+00 -3.208437797486E+00 3.317285511881E+00 1.987618437070E+01

