#BIOSYM hessian 1
@Type: Hessian Update
@Units
 distance: 	A
 energy: 	Kcal/Mol
#header
@natom 19

#label
L1      L2      L3      L4      L5      L6      L7      L8      L9      L10     L11     L12     L13     L14     L15     L16     L17     L18     L19

#element
Li Li Li Li Li Li Li Li Li Li Li Li Li Li Li Li Li Li Li

#matrix
57
 1.417702732385E+03
 1.135773396164E+02 2.349588188384E+02
 -4.601146553373E+02 1.100660766849E+01 1.915968342536E+02
 -6.494726181590E+02 3.099771123126E+02 3.177087817914E+02 1.275728558796E+03
 2.613183209624E+02 -1.018084232377E+02 -1.233583379956E+02 -2.391594843609E+02 1.404089144774E+02
 2.560910117524E+02 3.373309733309E+01 -4.577619877386E+01 -7.192474272848E+02 1.072459950344E+02 -3.810383639262E+02
 1.877174955081E+01 -3.235634282588E+01 -9.042020905648E+00 -6.450273935329E+02 -2.951419369273E+01 3.189365172130E+02 1.182367964855E+03
 -1.595831445948E+01 2.258065942898E+01 8.764472366270E+00 -8.075922930779E+01 -2.478042697184E+01 -1.279504187921E+02 -9.343868768358E+01 1.199141074599E+02
 2.737271731239E+01 -1.004360477129E+02 -1.982703335114E+01 3.520000803772E+02 7.983444846978E+00 3.081191439595E+02 -4.804497851415E+02 1.453974650144E+02 -1.705681358981E+00
 6.628709512510E+00 -2.594332954997E+01 -3.452687199838E+00 3.827411864870E+00 1.864100039994E+01 5.456170155129E-01 -4.947460788150E+02 1.089206458659E+02 2.177368588747E+02 5.733320370497E+02
 -1.187519810944E+01 -3.308037123668E+01 -7.178709149964E+00 2.537303625693E+00 3.568711195971E+01 4.917968495389E+01 1.196537576835E+02 -8.991895531148E+01 -9.810295163224E+01 -3.028737095139E+02 6.455726545578E+02
 2.014179107609E+00 -5.912540817401E+00 1.220649116439E+01 2.974708458313E+01 -1.313563231711E+01 9.651541495689E+01 2.002407734217E+02 -5.232298590522E+01 -1.270572888629E+02 -2.557672212089E+02 2.328804505196E+02 1.895048068489E+02
 2.042243517867E+00 -3.294406870164E+01 -7.886694111858E+00 9.820733019479E+00 1.164999143876E+01 2.909073148281E+01 4.132619095170E+00 1.173054173805E+01 -7.124298857433E+00 -1.118060820177E+02 1.006010539496E+02 6.723155352877E+01 2.495151184682E+02
 -1.242186652231E+01 9.599858881313E+00 6.514539867741E+00 -1.629613917864E+01 6.005694139560E+00 -1.384289519199E+01 -5.297562583166E+00 1.732702401710E+01 1.247961677539E+01 1.503714240867E+02 -5.432560446067E+02 -1.685566405410E+02 1.085222057182E+02 1.120419940611E+03
 -2.538144684061E+00 1.521941730535E+01 8.460239515511E+00 -9.449537164684E+00 -2.426172228957E+00 -2.091827260629E+01 1.076638718812E+01 -9.810431145834E+00 4.407753174638E+01 7.820777152269E+01 -1.506657218042E+02 -4.040549777109E+01 -4.342223844205E+01 1.746388806220E+02 1.184802236253E+02
 -1.535522387114E+00 -3.345205229036E+00 -3.083358451129E+00 -4.448565815024E-01 4.182245262338E+00 2.200357066802E+00 1.420944888166E+00 2.364253487327E+00 4.745399993857E+00 1.706492979123E+01 5.834638075932E+00 5.658121237260E+00 -1.904889062171E+02 -2.509186818311E+02 5.636676004327E+00 4.425218610058E+02
 -9.647449843179E+00 3.784896916134E+00 5.877397220260E+00 -1.930904945679E-01 -4.644885831899E-01 2.950877138003E+01 -1.424737986143E+01 1.678698299352E+01 -1.360867888843E+01 -1.138368663152E+01 1.691039299290E+01 1.000311746172E+00 -2.383161993047E+02 -5.279045786900E+02 -1.374436802906E+01 5.183336612816E+02 9.659959752170E+02
 -3.602171616781E+00 3.532282627425E+00 -5.105303897269E+00 4.989303595212E+00 -4.364461203498E+00 1.846253644228E+01 -2.031154564194E+00 2.932704603180E+00 -1.812087152181E+00 3.156205141959E+00 -3.694989231567E+00 2.643058866144E+01 9.858694956139E+00 -9.038774270448E+00 -3.505756620229E+01 -1.690421222353E+01 -3.569221825387E+01 1.315391637057E+02
 -7.313792660894E+00 -1.352153360968E+01 -6.903566190156E+00 -6.827407809568E-01 6.940476036939E+00 1.578793423584E+01 -7.617458597328E+00 5.666181129578E+00 -8.461751876193E+00 -1.108628796433E+01 -4.032010494928E+00 5.738926391956E+00 6.593230637226E+00 2.756645548555E+00 1.854669238896E+01 -2.571819889608E+02 -2.562241392995E+02 3.683851157125E+01 7.485347216933E+02
 -5.566632378899E+00 5.475191450879E+00 6.028431163616E+00 8.606238980938E+00 -4.447880744855E+00 4.678840374264E+01 -1.394344759794E+01 1.916109944806E+01 -2.232152276942E+01 3.243718837568E+00 2.081192801889E+01 -5.415921663648E-01 -4.102640181588E+00 1.953023626683E+01 -4.218803668174E+00 -2.530998534745E+02 -3.993329024442E+02 3.432618123458E+01 5.045683001623E+02 5.713925948411E+02
 -4.684343984886E+00 8.418821155561E+00 -1.358645064139E+01 2.090184695393E-01 -2.036177372078E+00 -7.300698633099E-01 -9.721481216456E-01 2.189493150464E+00 -3.686134261559E+00 7.054042381290E+00 3.231999679523E+00 6.014897039913E+00 1.691988180324E+01 -8.475524727048E+00 4.560613668224E+01 3.536215954904E+01 3.801739324856E+01 -4.843592141086E+01 -1.523086193025E+02 -1.057410260052E+02 1.259782477510E+02
 -9.237248380340E+00 7.696307473449E+00 -2.996114420061E+00 -1.025390289345E+01 3.041073716342E+00 -1.142713518719E+01 -3.723095007580E+00 7.671758855851E+00 5.806893269432E+00 1.731078372285E+00 1.602308867293E+01 2.768533790594E+00 7.120727991678E+00 1.072411307249E+01 2.140664622345E+00 1.460738146192E+01 4.138765660705E+00 8.813566950666E+00 -4.815328749321E+02 -2.238882026892E+02 1.339944843014E+02 9.297672270881E+02
 -2.767686600522E+00 1.587872777247E+01 8.961063409998E+00 2.823284525185E+00 -6.842299084159E+00 1.887028200367E+01 -5.720883872339E+00 1.203016037572E+01 -5.604081391285E+00 9.156896017973E+00 2.205981017786E+01 2.179273012218E-01 1.278828744315E+01 7.358575168877E+00 -4.851850091773E+00 -1.054740645150E+01 1.690618412186E+01 -7.127208724134E-01 -2.088815574121E+02 -1.673543921839E+02 4.700105687870E+01 2.622312594612E+02 1.984723948305E+02
 -5.562923890024E+00 4.556846343366E+00 -2.007869491908E+01 -2.543687286504E+00 1.599134018090E+00 -1.093189817095E+01 -2.788467491107E+00 1.010277355019E+00 -1.111698387002E+01 1.003155378892E+00 -2.011388413611E+00 -4.032090167985E-01 1.926001420943E+00 -3.825883594151E+00 6.737587365772E+00 7.893143847676E+00 -6.398241162105E+00 3.325415463775E+01 1.356570299809E+02 5.253073035985E+01 -4.103164045077E+01 -2.578793357945E+02 -7.455166863782E+01 1.597620672485E+02
 -1.205274301961E+01 1.394898934123E+01 -1.466305157198E-01 -3.767835315894E+01 1.462954884107E+01 -8.704958708040E+01 9.895200357088E+00 -5.410337976752E+00 5.150062785926E+01 -1.774746454147E+00 1.703373816739E+01 3.578698435442E+00 5.493188994065E+00 1.074752519294E+01 -3.104876937569E-01 7.966169313129E+00 1.084649378478E+01 3.813725479774E+00 1.397512509343E+01 9.323266659148E+00 1.023775174329E+01 -4.181577754913E+02 -2.816146275968E+01 1.296560134467E+02 8.918528595881E+02
 2.297211954914E-01 8.525837309163E+00 6.540910395521E+00 -9.552222627879E+00 4.485758336006E+00 -2.566870772811E+01 6.960641272287E+00 -1.606561341733E+00 2.284193980333E+01 3.826151823686E+00 7.832996047277E+00 2.550164880748E+00 4.478843717309E+00 2.542967285462E+00 -1.858321366918E+00 3.234458224679E-01 3.338192767053E+00 -1.735644526770E+00 -4.157126334680E+00 1.516575733311E+01 -2.523169698621E+00 -2.563902154576E+01 -4.840345338816E+01 9.004040033183E+00 -4.403248858634E+01 9.214914179160E+01
 -6.595783573375E+00 1.125486061546E+01 -1.860561667449E+01 -2.338199313424E+01 9.685543282478E+00 -7.129478708395E+01 7.021437338586E+00 -9.040080894847E+00 1.844288376084E+01 -1.787679647431E+00 3.352369250977E-02 -6.711674977135E+00 1.384339896973E+00 -5.503370661152E+00 1.854582206238E-01 2.354274995445E+00 -5.052859389394E+00 9.916725246732E+00 7.776997642880E+00 -4.596217407298E+00 3.404057145317E+01 1.290768896063E+02 8.568080060796E+00 -8.426674371103E+01 -2.002384144221E+02 -5.173551212037E+01 4.267805209172E+02
 -7.501464612138E+00 -1.643106628701E+00 -5.818219072859E+00 4.960876955654E+00 -6.824157627440E-01 3.063094748577E+01 -1.351769729558E+01 1.520152457615E+01 -2.597631533743E+01 -3.092543882523E+00 1.139385856475E+01 -4.344383450153E+00 1.259864962360E+00 1.221940078724E+01 -3.619813719331E-01 5.115016884392E+00 9.346049493208E+00 9.410867789363E-01 9.894073313064E+00 6.065364145172E+00 1.426161919301E+00 1.886452176435E+01 1.798381141581E+00 2.238826652139E+01 -4.630977831434E+02 8.685721259914E+01 7.347018877008E+00 8.900736645386E+02
 1.884944346182E+00 1.272263850769E+01 7.356184099914E+00 -2.263759597854E+01 8.048616774371E+00 -7.270802230763E+01 1.804880228924E+01 -1.517796873863E+01 4.971232460027E+01 2.538238937592E+00 3.391902634150E-01 6.032314436969E+00 2.209949798308E+00 -4.124906390425E+00 -1.373593828129E+00 7.842570970737E-02 -9.409371162839E-01 -4.082651976741E-03 -3.253346098502E+00 2.884234322391E+00 -3.373169995640E-01 -9.437325935220E+00 1.423499058888E+01 -1.228385676589E+01 8.044793550321E+01 -7.281532500590E+01 7.776823872991E+01 -1.820044802669E+02 1.224027606588E+02
 6.102328645175E-01 -1.454809508856E+01 -2.689979233933E+01 4.811887695871E+01 -1.647010494286E+01 1.270391783007E+02 -3.356362987062E+01 2.761365577236E+01 -1.132520741134E+02 -5.068197599819E+00 -7.279320990617E+00 -2.282198061546E+01 -6.419961720078E+00 -9.008608952387E-01 -3.356610479609E+00 -2.776968963699E+00 -6.227418980028E+00 2.174325495464E+00 -5.030360725107E-01 -1.007886734711E+01 8.712370384323E+00 2.231025577600E+01 -1.362422842021E+01 7.231208534237E+01 1.446548625844E+01 7.847707564470E+01 -4.882799788243E+02 -2.338305074235E+01 -1.341920317411E+02 9.213263990655E+02
 -7.587248975799E+00 5.985389105924E+00 -1.821467378277E+00 -1.901650117910E+01 8.791654689469E+00 -4.052232982960E+01 1.482009344150E+00 1.201306447586E+00 1.799446758032E+01 -3.218645785597E+00 1.216961656520E+01 -3.977879038349E+00 1.379187091978E+00 9.713889713282E+00 -5.175959517093E+00 4.187870231676E+00 8.942205853292E+00 -1.838679100528E+00 8.098540024157E+00 7.473910742514E+00 1.730905637482E-01 7.650391436950E+00 4.173403902070E+00 -4.054425547262E+00 3.644601884333E+01 -1.741538239489E+01 8.105816076969E+01 -3.990208906271E+02 8.612718088768E+01 6.821925913503E-01 7.036164881730E+02
 1.224668903594E+01 -5.261408818654E+00 -3.391991619777E+00 4.421357945586E+01 -1.687429453680E+01 1.019436556802E+02 -1.206565242905E+01 1.403234436205E+01 -6.330328917557E+01 1.018442070097E+01 -6.298162960630E+00 -4.379567824843E+00 4.886419498692E+00 -8.127998405553E+00 1.406498102741E+00 -3.807366336046E+00 -8.792113209347E+00 -3.837187404971E-01 -3.186869679222E+00 -1.150297231592E+01 -1.921610675625E+00 -6.821958803086E+00 -6.552428491628E+00 3.973686271852E+00 -2.000494732691E+01 2.540912950716E+01 -5.165259402211E+01 8.286494135235E+01 -5.860743318842E+01 6.122152048263E+01 -2.133980290688E+02 1.326252825294E+02
 -3.139318736799E+00 8.939592041138E+00 -1.393900486184E+01 -1.682714041012E+01 6.889404186770E+00 -5.590286863883E+01 2.094791369098E+00 -5.455891926622E+00 8.929412217531E-01 -5.506019382904E+00 1.606400895024E+00 -2.070613674109E+01 -4.274954410643E+00 -3.249389060675E+00 -1.667912680662E+01 -4.050383023775E+00 -3.067784331095E+00 -5.455594595089E+00 -1.717643440501E+00 -3.309212688885E+00 4.440143687367E+00 -6.929631824727E+00 -1.321945796540E+00 -4.831792875717E+00 7.850615256689E+01 -5.769240952912E+01 2.486824520124E+02 -2.299664432465E+00 7.058199390924E+01 -4.514625362840E+02 -1.839322835613E+02 3.346203914463E+01 3.801936122426E+02
 -2.305042118857E+00 1.364713147974E+01 4.494459326745E-01 2.216311326506E+00 -6.393891421177E+00 7.853255754124E+00 -5.909028830815E+00 1.029681866688E+01 -1.484826954536E+01 7.219098086727E+00 1.896583214402E+01 -9.703066413145E+00 1.099037315397E+01 5.264380321337E+00 -1.176680312109E+01 1.878641540737E+00 4.743220499173E+00 -6.409103344040E+00 1.046429966722E+01 -7.722226608294E-02 -5.936212406501E+00 4.444380185613E+00 -4.150531656066E+00 -8.778776579617E-01 5.842960573300E+00 -7.496396031267E-01 -2.745105294726E+00 1.252023271754E+01 -1.060481456327E+00 1.607159536956E+01 -3.020269889484E+02 1.174918451889E+02 1.282500017832E+02 3.877573994799E+02
 1.282319194664E+01 3.591858946187E+00 -1.996337364644E+00 2.200060240755E+01 -9.803242455230E+00 2.823734196151E+01 4.119038555598E+00 -2.195222599526E+00 -1.976863307916E+01 1.041314029180E+01 -1.014387585241E+01 -1.099802187641E+00 5.301644866811E+00 -1.441187602412E+01 4.570933811489E-01 -3.266584476783E+00 -1.274280062508E+01 1.484067303538E+00 -6.210169916257E+00 -1.145570085138E+01 1.375414289163E+00 -1.172414842840E+01 -6.650613554751E+00 2.220106922464E+00 -9.966686680889E+00 2.012783719509E-01 6.072148338360E+00 -1.331756800214E+01 1.834226216671E+01 -8.129961903548E+00 1.205512095949E+02 -7.659254958434E+01 -5.529636107022E+01 -2.323605869288E+02 2.372907535929E+02
 -9.015571509760E-01 1.553755529410E+00 -9.255304224545E+00 -1.124448996586E+01 6.683401873704E+00 -3.929989168294E+01 -8.390299258129E-01 -3.741222723521E+00 -7.105315036202E+00 -1.047025479033E+01 -1.773600202910E+00 -2.428222551603E+01 -1.101744527514E+01 -4.678231955180E-01 -2.159254067429E+01 -7.157824432930E+00 -8.864567536705E-01 -1.386031088900E+01 -7.095279335124E+00 -1.337115672566E-01 -4.642509753162E+00 -2.728961685937E+00 -4.838206068621E-01 4.352256649013E+00 -6.751704227322E+00 1.803805113577E+00 -3.190699967121E+00 1.598217613789E+01 -1.222806985138E+01 5.983269616527E+01 1.277327980952E+02 -5.295572082786E+01 -6.199127063928E+01 -1.695572347042E+02 1.262758987371E+02 1.313915991215E+02
 7.913367069284E-01 2.229714571252E+01 6.212842541468E+00 -1.854606530710E+01 4.084086006630E-01 -6.324029284156E+01 1.194988632785E+01 -5.766056413301E+00 3.085499033342E+01 9.251528990851E+00 1.662903642730E+01 -8.236640927064E+00 1.208712086349E+01 -8.471830496559E-01 -1.624439349233E+01 5.137230779076E-01 1.043961672967E+00 -9.585098920141E+00 6.195803197836E+00 -4.850306186586E-01 -9.032873229285E+00 -1.388535268395E+00 -5.314651563648E+00 -4.018888539387E+00 -2.178169680713E+00 -2.833102387605E+00 -2.748344730273E+00 4.551395622699E+00 -4.699690675812E+00 9.722725372025E+00 5.179621899975E+00 4.367542257156E+00 5.624699656861E+00 -8.019481667358E+01 8.868219269455E+01 5.886430331261E+01 1.225340773860E+02
 1.168926608103E+01 1.990569546125E+00 -3.697441231209E+00 -7.615505303503E+00 7.423390478179E+00 -6.074191345920E+01 2.260572778524E+01 -2.170732053113E+01 3.422936179543E+01 2.619188168508E+00 -2.095635425207E+01 2.637840386761E+00 -2.934969649828E+00 -1.737709930200E+01 2.768386984997E+00 -2.684709100253E+00 -1.441645206159E+01 4.061928920946E+00 -1.234456724306E+01 -7.606142820175E+00 6.682190846706E+00 -1.210968961813E+01 -2.575381339328E+00 5.728773560097E+00 -1.729127601333E+01 9.055542411004E-01 2.640816667966E+00 -1.160020716867E+01 3.403597159491E+00 1.065019188738E+01 -1.177605879900E+01 2.415763585314E+01 9.052446371045E-01 9.096037787582E+01 -1.193695947230E+02 -6.788079534118E+01 -4.387613007668E+01 2.301239464581E+02
 2.833542303021E+00 -9.747805149426E+00 -2.429245490513E+00 5.616854818128E+00 2.107557631514E+00 1.186864958002E+01 -8.753652300707E+00 3.233829210275E+00 -3.019412506372E+01 -1.358130837823E+01 -5.436189769310E+00 -2.517605462563E+01 -1.676759592264E+01 3.041282436752E+00 -2.332404338214E+01 -1.033153664745E+01 1.733292180512E+00 -2.150206127159E+01 -1.187278310656E+01 2.309804015892E+00 -1.508696566079E+01 -5.066042840243E+00 3.529814882433E+00 -7.475270351593E+00 -1.135945289380E+00 1.109420127758E+00 3.434159345772E+00 1.775195657593E-01 7.968912437526E-01 9.284693653747E+00 5.673489662751E+00 -2.477665245960E+00 2.488414606627E+01 6.083432118711E+01 -6.635742054609E+01 -5.984908213497E+00 -4.096891358263E+01 5.748933837638E+01 6.878573449817E+01
 7.055650778691E+00 1.491908297524E+00 2.677424406929E+00 4.572929155910E+00 -2.316402146722E+00 -4.829595147966E+00 4.736561555033E+00 -3.212655279377E+00 -2.376965334433E+00 2.578764619546E+00 -2.626753266997E+00 -7.242344502590E+00 3.079369431025E-01 -3.943798992539E+00 -9.505957749463E+00 -2.050881676298E+00 -3.099702194715E+00 -8.865112945534E+00 -3.307767151165E+00 -2.094072362920E+00 -8.031289993594E+00 -4.060444115003E+00 -1.380338990525E+00 -5.775205168244E+00 -3.623030866934E+00 5.566947086728E-02 -2.893783563020E+00 -1.459632901235E+00 9.587833494931E-01 1.623790198392E+00 2.439912536747E-02 3.313216037103E+00 4.090976800156E+00 3.271627655536E+00 4.575336453576E+00 7.508503800168E+00 -4.311946341659E+01 -5.077368029153E+01 1.703537512054E+01 1.336142054990E+02
 1.095872700131E+01 1.948052143344E+00 -6.285533566326E+00 1.143121137037E+01 -2.283153587883E+00 -9.019372353761E-01 8.579332417364E+00 -7.112131822530E+00 -5.748307783924E+00 6.741909836273E+00 -1.309086863196E+01 -2.048998580349E+00 1.992865883435E+00 -1.426634398317E+01 1.168082000781E+00 -2.781374944896E+00 -1.273176081333E+01 3.283804442178E+00 -7.011968735525E+00 -1.042346798171E+01 5.249681609991E+00 -9.995818799159E+00 -5.455166729850E+00 6.311613863631E+00 -1.049018712206E+01 6.412232996878E-01 6.392508000780E+00 -1.067947988590E+01 7.030354800961E+00 4.302999658555E+00 -9.127645160523E+00 1.151549586018E+01 3.864020986331E+00 -7.655429215000E+00 1.653858837736E+01 1.859704204302E+00 -5.462553957381E+01 -4.917816390607E+01 4.594585433732E+00 1.178357289728E+02 1.442871881312E+02
 4.498773786415E+00 -3.318365535266E+00 1.076337229107E+01 2.831399783198E+00 -6.388198136289E-01 7.859207822039E+00 -2.735120422483E+00 1.403676941830E+00 -8.491003192428E+00 -5.947498235070E+00 1.270845778809E+00 -1.471234041582E+01 -8.871933591216E+00 3.400586207639E+00 -1.971288205869E+01 -8.819960308533E+00 3.422692066676E+00 -2.119169139639E+01 -9.211285034859E+00 3.589341066741E+00 -2.054340699861E+01 -7.155802181862E+00 3.227579849513E+00 -1.614709203500E+01 -4.120716051195E+00 2.196140673061E+00 -8.088218057465E+00 -1.676428734907E+00 1.099857718468E+00 -3.112374821371E-01 2.137594883366E+00 -1.052748654123E+00 1.000168440646E+01 5.202998335552E+00 -2.723227187191E+00 1.966091708695E+01 1.649678722296E+01 3.348621702501E+00 2.445168674981E+01 -1.661766759538E+01 -2.448346641768E+01 3.714492346371E+01
 1.413593509551E+01 1.704763259562E+01 7.358374900211E+00 2.652612763623E+01 -2.193140743400E+01 4.310036327580E+01 1.288373262893E+00 5.498334499134E+00 -2.898176031375E+01 2.178302074872E+01 8.877257246772E+00 -9.410201253458E+00 1.859039903728E+01 -1.197419302771E+01 -1.377503572038E+01 -2.179551968105E+00 -1.084687231203E+01 -1.055146206825E+01 1.894116446803E+00 -1.337608817778E+01 -1.240497125719E+01 -1.132162880069E+01 -1.335567582227E+01 -7.604935768088E+00 -7.026731091006E+00 -1.639864492270E+00 -3.315188231674E+00 -8.049477158049E+00 5.593621973539E+00 -4.976367891443E+00 -3.592466380637E+00 -2.697319104588E-01 2.052659311085E+00 -1.021483108173E+01 5.481605227855E+00 8.123877685003E+00 -3.048976472752E+00 1.678010620440E+01 1.279956553383E+01 -7.248962112695E+01 -5.249783987629E+01 2.868289448595E+01 5.568473065737E+02
 5.244474679679E+00 8.016586710719E+00 -3.774255514619E+00 -8.305253375355E+00 4.109757493895E+00 -4.837857897784E+01 1.337549344058E+01 -1.318915566648E+01 2.193297409769E+01 2.580336844648E+00 -8.377644629982E+00 9.045402245126E-01 8.148295983715E-01 -1.037689257738E+01 -8.226999400004E-02 -1.421821824064E+00 -7.610229999341E+00 3.961181533459E+00 -5.164536098150E+00 -4.364727881539E+00 6.030942531016E+00 -6.758485514878E+00 -2.088299459481E+00 6.753215848429E+00 -1.099496501614E+01 -2.994279788052E-01 4.110915669253E+00 -5.435505631706E+00 1.266102641820E+00 1.185563346649E+01 -7.737585602937E+00 1.434873757016E+01 2.701194531877E+00 -2.912807363358E+00 1.465189556031E+01 9.190129135794E-01 -3.916810669782E+00 1.354842231640E+01 -8.540362479010E-02 -5.623226959581E+01 -4.409686275748E+01 9.931000857274E+00 9.784848735335E+01 7.722947488374E+01
 1.031904620270E+01 -3.106292863032E+01 1.095757876700E+01 5.133939599869E+01 -1.394759192337E+01 1.595355864610E+02 -2.534963027809E+01 2.497585921684E+01 -8.254947253384E+01 -6.933496262631E+00 -1.006639124445E+01 -1.112969831261E+01 -1.607485495749E+01 7.854966297828E+00 -5.908987271517E+00 -7.528498687720E+00 2.764962965143E+00 -2.052058614219E+01 -1.348706078697E+01 3.171792083876E+00 -2.225779098562E+01 -5.144954978342E+00 7.235053837492E+00 -2.333439468248E+01 5.608260021218E+00 8.753409991456E+00 -1.086150532913E+01 -7.754622772254E+00 1.170630013803E+01 -2.990609256936E+01 4.525583157161E+00 -1.165436668260E+01 3.134724244803E+00 4.166014855315E+00 -5.365564872401E+00 1.031610094433E+01 1.720187402247E+01 3.934692226160E-01 1.648352765386E+01 2.822448572994E+01 8.147489978151E+00 1.664609985658E+01 -1.713369244599E+02 -2.555412872536E+01 7.490383733829E+01
 -7.378117014297E+02 -3.842576857431E+02 1.717718624541E+02 5.269428368573E+01 -1.596734432388E+01 1.196457066834E+02 -9.837298197584E+00 1.780848832812E+01 -7.420861021221E+01 1.685733561259E+01 -5.796526426398E+00 -1.358894214831E+01 9.451819664525E+00 -1.002934122059E+01 -4.763035056463E+00 -4.352991727288E+00 -1.260449174009E+01 -8.120918404232E+00 -2.024714196460E+00 -1.831139840535E+01 -1.094022967630E+01 -9.644666908893E+00 -1.140594227843E+01 -7.093108913593E+00 3.063764769905E+00 2.063372488392E+00 3.571154533797E+00 -1.344029200398E+01 1.787476454383E+01 -2.544617246650E+01 -7.005564484200E-01 -1.121901668119E+01 5.244745354685E+00 -9.272819473795E+00 4.859375406284E+00 7.543884034244E+00 6.613866783956E+00 2.366420065609E+01 4.876255663267E+00 8.695974558904E+00 8.024384585963E+00 5.841034126377E+00 -4.841893958966E+02 -1.569583031768E+01 1.451446437338E+02 1.225468147950E+03
 -3.710696911005E+02 -1.498428643231E+02 8.918583694721E+01 -1.120408073450E+01 -8.438897943640E+00 -5.029214254828E+01 1.037157194693E+01 -7.017331079086E+00 2.436842406838E+01 1.490944722935E+01 1.543770163188E+01 5.799297585583E-01 1.764396321694E+01 -8.178220500466E+00 -8.127492773410E+00 6.963335193645E-01 -4.047709694384E+00 1.577056968479E+00 6.304069268785E+00 -4.738871987272E+00 1.716669687081E+00 -5.900185372980E+00 -8.213519921167E+00 5.238269226917E+00 -1.011101479796E+01 -3.278344035031E+00 1.594708471796E+00 -9.615600246429E-01 -2.561842416519E+00 1.585130857745E+01 -5.499514402652E+00 9.726960038582E+00 6.867368287692E-01 -8.359745166212E+00 7.224130201483E+00 2.286490126841E+00 -1.273702678078E+01 8.832695650809E+00 5.103369390163E+00 -2.608324168465E+00 1.196293844291E+01 -6.545085998366E-01 -3.512963216339E+01 -6.362639014581E+00 2.187850371432E+01 4.067227809506E+02 1.831478134495E+02
 1.838664063129E+02 6.651341290860E+01 -2.346376984418E+01 -2.483540304608E+01 3.163508398762E+01 -5.425102669271E+01 2.474202554964E+01 -6.481577958789E+00 6.168504281042E+01 1.829743778655E+00 -1.263776410467E+00 -2.641338824690E+00 -3.638195128187E+00 5.925882872070E+00 -1.362632295715E+00 -3.378759621350E+00 2.117063441655E+00 -1.361603865562E+01 -8.204001823972E+00 1.241111580149E+00 -1.978275835427E+01 -5.708732264606E+00 2.799354290602E+00 -2.148556192750E+01 3.156641145952E+00 7.920935224974E+00 -1.425917165791E+01 -7.685063774169E+00 9.063262701965E+00 -3.051477036470E+01 1.637018639731E+00 -1.023533886456E+01 -5.538608352970E+00 -1.672027791293E+00 -5.797128686305E+00 1.432321282179E+00 9.122532306090E+00 1.686793922759E+00 7.447913771387E+00 5.027665676472E+00 -5.799336051357E+00 1.800243787169E+01 1.589565532992E+02 9.491040132724E+00 -5.161027205627E+01 -3.221204362822E+02 -1.107051212878E+02 1.837752059622E+02
 -9.950774591142E+00 -7.611480825199E+00 -3.108716246391E+00 1.010281425970E+01 -7.988329778806E+00 6.219186122128E+01 -2.412045823544E+01 1.093471438472E+01 -3.978640255118E+01 -1.166589371082E+01 -1.972567218645E+00 -2.808209999581E+00 -1.290903548408E+01 9.372762383603E-01 1.400843376033E+00 -1.281991700984E+01 -4.533210848987E-01 -2.666677188095E-01 -1.171764596020E+01 -2.479581506035E+00 -5.519596402026E-01 -1.139917775458E+01 -5.447991075340E-01 -1.876294701434E-01 -7.844073467513E+00 8.186414500080E-01 2.505213966734E+00 -1.340166635174E+01 4.451545030830E+00 -6.982616326130E+00 -1.026930885067E+01 -5.252471022451E+00 1.724561394728E+00 -1.237010168104E+01 -1.129910569366E+00 1.166368963230E+00 -9.024665141081E+00 2.734743939188E+00 -9.442826253169E-01 -1.139381122921E+01 -4.249715229185E-01 -3.345005662243E-01 -1.362936734312E+01 2.828221680235E+00 -7.954863981468E+00 -2.143585833655E+01 4.480049573205E+00 -6.711064200027E+00 1.991962400245E+02
 3.358917717507E+00 -2.716839259719E+01 -6.055981916071E+00 4.038054017191E+01 -2.586907573144E+01 1.150726027949E+02 -2.283269882000E+01 8.180949449008E+00 -7.353746572834E+01 -6.758637771162E-01 -1.652188252559E+01 -5.075690725247E+00 -3.133922379738E+00 -9.862022055615E+00 3.020736082080E+00 -1.942166060698E+00 -1.250828285371E+01 -3.994533171580E-01 -3.786540647642E-01 -1.601141250797E+01 -7.909656819986E-01 9.271375924595E-01 -1.223192635505E+01 -3.240804705234E-01 7.410929955687E+00 -1.009622926051E+01 4.650379768013E+00 -2.930653341366E+00 -3.554803163057E+00 -1.296835726473E+01 2.865910438036E+00 -2.130106513608E+01 3.231249653881E+00 -5.504575123092E-01 -1.373686685978E+01 2.030087824496E+00 5.669930987023E+00 -7.003617078572E+00 -2.020631207473E+00 7.762340900904E-01 -1.258182875421E+01 -6.422377410114E-01 -2.591498292582E+00 -6.640221018930E+00 -1.498743176252E+01 -1.738772075711E+01 -2.848949280004E+00 -1.235506151832E+01 4.882093525696E+00 5.926997680046E+01
 -6.410668451832E-02 -2.318187468047E-01 -1.181484887629E+01 -6.042398730226E-01 4.372288913373E-01 -1.338380323503E+01 3.068211721995E-01 -3.645635431754E-01 -1.075084067633E+01 -3.047301940165E-01 -3.056517400124E-01 -1.168240790821E+01 -3.250977663147E-01 4.132629690349E-02 -1.168812595957E+01 1.176494527210E-02 5.267978431610E-02 -1.175607850387E+01 -1.736225675134E-01 1.857345473111E-01 -1.170375019264E+01 5.488562256058E-02 2.021918882191E-01 -1.178150534530E+01 -6.709543949216E-02 3.950440215714E-02 -1.185300889079E+01 5.567217704620E-02 -1.129733974548E-01 -1.163145234878E+01 -2.413509231323E-02 2.041015429243E-01 -1.182469682288E+01 1.850259069388E-01 7.767098843310E-02 -1.186602711516E+01 1.095368734933E-01 -1.589989663207E-01 -1.186009616651E+01 1.630197433963E-03 1.034091110498E-02 -1.179307655355E+01 3.126518908219E-01 -9.849357251684E-02 -1.167930332528E+01 3.959635181680E-01 1.020008821796E-01 -1.160178489378E+01 -3.108961855878E+01 -8.192008351834E+00 1.043931427445E+02
 -1.144904983663E+01 -5.564529420372E-01 -3.561657129360E-01 -7.971747689191E+00 -1.773253573826E+00 1.063515612199E+01 -1.388733687732E+01 2.018487624318E+00 -6.849106379571E+00 -1.124522172101E+01 2.849443483406E-01 -5.496493536914E-01 -1.136667597381E+01 4.618752266287E-02 -7.922118960514E-03 -1.194410128906E+01 -1.493290376207E-01 -9.983042495038E-02 -1.148087651370E+01 -6.378284854099E-01 -2.273179245522E-01 -1.183997308047E+01 -4.221651415805E-01 -4.541080418024E-02 -1.117768481207E+01 3.438409877867E-02 4.197351534614E-01 -1.209432436290E+01 7.597953561316E-01 -1.166054302576E+00 -1.155914292036E+01 -1.020228087160E+00 2.716376979112E-01 -1.219005743586E+01 -2.784767120210E-01 2.733472607278E-01 -1.163550379213E+01 6.233417448227E-01 -3.658455394204E-03 -1.174622870947E+01 -7.175839103657E-02 -4.374396075878E-02 -1.257217448116E+01 5.294148180629E-01 -1.205257614729E+00 -1.370396874141E+01 3.877184966661E-01 -1.183594104578E+00 -7.324460564405E+00 -7.506359888712E+00 1.476537013504E+01 2.007176522232E+02
 -2.113845123481E+00 -5.455078486370E+00 2.944026794644E+00 -2.435507433810E+01 -1.865086695666E+00 -6.856604470850E+01 1.354997187279E+01 -2.425870194017E+01 4.398929319881E+01 -1.592416280274E+00 -1.133340333303E+01 3.287295069816E+00 -4.729072564198E-01 -1.251296574786E+01 -8.626761004965E-01 1.061516479703E+00 -1.109632535540E+01 4.433886836170E-01 -9.105568484615E-01 -8.471213434429E+00 9.747266103769E-01 -1.223986850743E-01 -1.028695563016E+01 2.435681179274E-01 -4.191584937604E+00 -1.240554298883E+01 -2.738093587775E+00 1.842671257201E+00 -1.669774359852E+01 7.621112380321E+00 -1.609436014833E+00 -5.666960205889E+00 -1.837205910877E+00 1.455061677350E+00 -1.031334660202E+01 -1.489469740298E+00 -2.184951456299E+00 -1.523784325827E+01 6.063034186236E-01 -3.840345138907E-01 -1.132791735416E+01 3.317114850161E-01 3.302826335969E+00 -1.503811532159E+01 8.342992184742E+00 1.134975787502E+01 -1.569074266680E+01 7.497971636334E+00 4.621443628228E+00 6.280196036242E+01 2.542279524011E+01 5.303724739068E+00 1.689874951678E+02
 -1.166713679370E+00 3.564874204570E+00 -1.015179508266E+01 -1.346349966150E+01 5.458860239641E+00 -4.971464445683E+01 7.495015272098E+00 -6.881897314360E+00 1.253091809745E+01 -8.388743402046E-01 3.040890482489E-01 -9.981386894065E+00 -2.124917275240E-01 -4.067236968196E-01 -1.229067755270E+01 5.890821723639E-01 3.801111852185E-01 -1.155301373612E+01 -4.797728559857E-01 1.820667921398E+00 -1.126540242958E+01 -7.670658007473E-02 8.073205677639E-01 -1.166027839013E+01 -2.322871960894E+00 -3.466396885079E-01 -1.330892850207E+01 1.017075117619E+00 -2.712189458058E+00 -7.576817556373E+00 -8.921634710676E-01 3.378856466128E+00 -1.281184812228E+01 7.811042405810E-01 8.120732124943E-01 -1.261181854120E+01 -1.233411056541E+00 -1.892313173158E+00 -1.144608097570E+01 -2.140368120024E-01 2.578009803005E-01 -1.160940438288E+01 1.789779202126E+00 -1.790577568317E+00 -7.167493519778E+00 6.256292533885E+00 -2.185185664251E+00 -7.649999427226E+00 1.896789109676E+01 1.773672573988E+00 4.559840560949E+01 -3.700528250291E+01 1.915639963072E+00 8.627452977538E+01