#BIOSYM hessian 1
@Type: Hessian Update
@Units
 distance: 	A
 energy: 	Kcal/Mol
#header
@natom 15

#label
L1      L2      L3      L4      L5      L6      L7      L8      L9      L10     L11     L12     L13     L14     L15

#element
Li Li Li Li Li Li Li Li Li Li Li Li Li Li Li

#matrix
45
 5.193881591994E+01
 -1.625265755630E+00 5.159267043593E+01
 -3.944530376779E+00 -9.953081911517E-01 6.030462903464E+01
 -1.036030873195E+01 4.831390425933E+00 1.010244636702E+01 1.898966559940E+01
 5.510178366932E+00 -1.917266638888E+00 -6.080265704724E+00 -8.432337306075E+00 1.722905438028E+01
 9.777222006161E+00 -6.906314568103E+00 -1.086561522918E+01 -8.624632614945E+00 3.420539248599E+00 2.013334079717E+01
 -6.812447466083E-02 -5.794667029097E-01 -1.109504433661E+00 7.280571553757E-01 -4.039944107824E-01 -5.964039403248E-01 1.602778931501E+01
 5.575591152536E-01 -7.019170525789E-01 -1.683960719938E-01 -2.030360435946E-01 -1.614516929317E-01 6.446011079638E-02 4.863066379815E-01 8.326972324904E+00
 1.172231902010E+00 -8.245596831276E-01 4.898019102775E-01 -9.977715577287E-01 5.798399355736E-01 -4.816423628728E-01 -1.157688636727E+01 3.163718102879E+00 2.658425734142E+01
 -9.054424969907E+00 -7.879769156324E+00 -4.620241944447E-01 -2.496698118556E-02 5.310377403914E-01 4.042357754865E-01 3.084267296341E-01 -1.136868182174E-01 -9.711015923163E-01 1.810856727503E+01
 -9.926955091385E+00 -1.060650691204E+01 -8.302833624383E-01 -4.870574826767E-01 -3.119039520962E+00 6.802467363223E-02 -4.187365778438E-01 -3.261679742602E-01 -9.950231663087E-01 1.025962067935E+01 2.398694490948E+01
 1.926424676386E+00 1.771217519462E+00 -1.946141662362E+00 -4.802074930900E-01 -1.578547326540E+00 -7.205951470846E-01 3.390009511109E-01 1.398491042669E+00 -4.375594295212E-01 2.272937972680E+00 -1.585407366236E+00 1.770104467728E+01
 6.755557868893E-02 2.604179391351E+00 -7.717518576827E-01 -8.138316712622E-01 4.533012789068E-02 -2.285757247470E-01 2.321084557320E-01 6.333032621989E-01 -1.339465953879E+00 8.554492196702E-02 -6.805340832856E-01 1.787288933553E-01 2.063974656766E+01
 -3.602019293770E-01 1.127913470105E+00 7.924830783357E-01 2.702814470159E-01 5.042448170920E-01 -7.170030155921E-01 -9.167279673591E-01 -3.591722265153E+00 -6.312035653180E-01 -9.740300869539E-01 5.395819887897E-01 4.636235811085E-02 9.380106429629E+00 3.052319186600E+01
 7.273871538549E-01 1.081270680511E+00 -1.942957388192E+00 4.395538574916E-01 8.360151120015E-01 5.057124741848E-01 -4.479566434595E-01 -4.036659144245E+00 -8.292511860613E-01 -4.847849536212E-01 1.481032737529E+00 -1.592397403772E+00 -3.912279542979E+00 -5.817741940952E+00 1.486713230380E+01
 -6.344461976902E+00 -3.159117983565E+00 5.412001125628E+00 2.546533643667E-01 -5.890907229584E-01 1.070648533201E+00 -2.585314147793E+00 -6.243878014381E-01 -4.313040958113E-01 -7.138018940193E-01 -3.310832131015E-02 -2.180436144266E+00 -1.407944208243E+00 4.278238844300E+00 -1.209425314249E+00 3.207586046752E+01
 -1.511636847362E+00 -4.008240096117E-01 4.194256229557E+00 6.228010540588E-01 2.125441301535E-02 -5.146295742805E-01 5.204785010691E-01 -1.166921891990E+00 -2.573502171527E-01 1.227964645752E+00 -3.351276253315E-01 3.894302601649E-01 3.034185665400E+00 -7.460529418764E+00 4.221469696066E+00 -3.827601256619E+00 1.579610962074E+01
 2.160851013426E+00 2.915771269766E+00 -2.794851174260E+00 -5.072561381873E-01 6.617136256608E-01 -8.377271368248E-01 -4.648794958397E-01 7.088577731657E-01 -4.784204714316E+00 -1.100341818043E+00 1.281138345921E+00 7.787748162798E-01 -1.825630477728E+00 3.700666489573E+00 -2.775048185111E+00 5.478595121795E+00 -8.381421744695E+00 2.255932210636E+01
 -6.766878605721E+00 3.582707081466E+00 -5.267931143232E+00 -1.292102597809E+00 9.459241225332E-01 -7.819595293390E-01 4.206961586300E-03 -4.019842123469E-02 5.735495963921E-02 -9.185404923580E-01 2.406679269568E+00 7.410757456976E-01 4.134498085754E-01 1.903633180016E+00 1.666534293520E+00 -7.590817258838E-02 -1.819168182160E-01 2.726435134393E-01 3.198649837816E+01
 1.898927481108E+00 -5.076656086933E-01 1.357378585610E+00 2.546682332661E-01 -1.189136959942E+00 -1.248673438119E+00 1.021666300033E+00 9.875877355872E-01 -3.695138223668E-01 1.116927975475E+00 -5.864228990968E+00 2.729572986196E+00 3.002008751819E-01 7.092351771353E-02 -1.310494343019E+00 -5.247834239400E-01 2.901625794940E-01 -8.008916036209E-01 1.471365380824E+00 1.329601706959E+01
 -2.398907237551E+00 3.004583817332E-01 -4.058376724277E+00 -9.895047358417E-01 -5.038933377867E-01 -3.302774376179E+00 2.032761078239E-01 1.580160732986E-01 -8.404350414992E-01 -1.201809170470E+00 1.277965521240E+00 -1.923302941110E+00 -8.457984094493E-01 -4.932961447218E-01 1.451187857684E-01 1.091614836198E+00 -6.321473990770E-01 2.753212144374E+00 -5.020759618328E+00 -6.357641784931E+00 2.450683853343E+01
 3.881532257265E-01 -4.605959932389E-01 3.732851522165E-01 -1.079968436410E+00 -7.143780610088E-01 -6.351732465862E-02 -1.037366783312E+01 2.816086072960E+00 1.458145973693E+01 5.805910898048E-01 -1.661695943641E+00 1.722787700403E+00 -1.073744933010E+01 -1.239571351012E+01 1.299945356456E+00 -1.580482675843E+01 1.712859022295E+00 -6.523600633138E+00 -1.649258662080E+01 -3.728925181304E+00 6.144093574003E+00 6.946089403254E+01
 -1.469241214895E+00 -3.316893035125E+00 4.126034713479E+00 1.071717080266E+00 -2.557799826393E-01 -1.614942139576E-01 2.481158481223E+00 -6.923173504180E-01 -5.463418376859E+00 -6.889969784468E-02 -1.018863744149E+00 1.758368263095E-01 -9.990767266875E+00 -1.672298672697E+01 1.167891164101E+00 1.174690070897E+00 9.574028226724E-01 2.582844894896E+00 -7.341941962934E+00 -1.468894369526E+00 5.295836487894E+00 2.033977283980E+00 6.465986419001E+01
 -1.317960361403E+00 5.223914437381E+00 -7.975945182397E+00 -1.193548567289E+00 1.164849713088E+00 1.052679089127E-01 1.320822063024E+01 -3.192631077171E+00 -1.714026239913E+01 6.824298873897E-01 1.191506083331E-03 1.576249942537E+00 2.559599385347E+00 2.217815310729E-01 -6.939685432564E-01 -1.007454632915E+01 2.348156744786E-01 -2.796159899855E+00 8.032270086985E+00 4.156866269768E+00 -4.075113474440E+00 -3.762307652865E+00 4.833341925807E+00 5.396404793771E+01
 -1.029158645910E+01 8.903459664949E+00 -5.992392720739E-01 -4.078430348432E-01 -7.673199927103E-01 -1.644684930500E-01 -1.500288586824E-01 -4.907287173644E-01 -6.236082925642E-02 -6.013477405480E-01 1.035326131362E+00 -4.532202576972E-01 1.520402930842E+00 -2.447022957052E-01 3.663837332848E-01 -1.600588325937E+00 -2.815377884075E-01 8.264230339374E-01 -9.969775725532E-02 -4.587986515059E-01 2.578810555689E-02 1.721901832429E+00 -1.037883824779E+00 1.650332566538E+00 1.754521941748E+01
 1.148775872674E+01 -1.043220237324E+01 -1.808392681765E+00 -1.261986738770E+00 -4.901935248858E-01 2.450520211485E-01 1.396194540444E-02 1.082582920298E+00 8.516010433154E-01 -2.001815376924E+00 -6.142956373106E-01 8.526796555476E-01 -6.351813345020E-01 -4.925204290028E-01 -6.657557638872E-01 4.017410877122E-02 -5.196544994840E+00 3.505198803461E-01 -5.279597170013E-01 6.714570410086E-01 8.380299329636E-01 -9.880644768693E-01 1.457565177387E+00 -4.701861850467E-01 -9.833230190980E+00 1.878896791521E+01
 -2.194252365886E+00 -2.164502006444E+00 1.906385897528E+00 -2.275941407204E-01 -5.102251065678E-01 -1.243896729955E+00 6.111882122148E-01 2.036900908814E-01 1.408760886005E+00 5.961056830147E-01 7.340141612669E-01 -9.132882883576E-01 -9.573423672707E-01 -1.578498436467E+00 -1.598040558445E+00 1.253915164347E+00 1.197258079164E+00 -1.637508297499E+00 -4.826720780130E-01 2.123548062695E+00 1.010935129726E+00 -3.987312847740E-01 1.522978110845E+00 -7.113009788955E-01 -1.883060865402E+00 8.204869290815E-01 1.745598805532E+01
 7.322566948754E-01 2.378998453972E-01 3.968211191965E-02 4.344934733171E-01 -7.820203869842E-01 4.063260124308E-01 -5.030262031503E+00 -3.386462309742E-01 -1.193937051028E+00 1.794232076457E-01 5.806496403333E-01 2.256025606370E-02 -9.769027734942E-01 -4.013109599139E-01 -5.677611749067E-03 3.710540963687E-01 -1.114089733532E-01 -8.933806160112E-01 -1.269452999009E+00 -3.488608325667E-01 1.782467496976E+00 -8.697106699003E+00 -2.475111229763E+00 -7.618929121111E+00 -1.071431796297E+00 3.787939564429E-01 4.848459626278E-01 1.919342872680E+01
 -4.105395846947E-01 -4.132183617746E-01 4.368572322464E-01 1.830978366668E-01 -4.574019199576E-01 2.930714691908E-01 -1.048997128727E+00 -9.068093046704E-01 4.494808851686E-01 5.434115894815E-01 1.130236200790E+00 -9.449606963871E-01 6.883418322918E-01 -4.444641709047E-01 6.906597931675E-01 7.621614778621E-01 9.785984989817E-01 -1.510491417829E+00 1.119348570090E+00 -9.182076326220E-01 -8.206187137797E-01 -4.698784479156E+00 -1.399594130834E+00 -5.037784547658E+00 3.137756058028E-01 -3.443023743189E-01 1.348554775260E+00 1.026784175432E+00 1.101361392457E+01
 1.032070147955E-01 1.127227378423E+00 -3.545571076683E-01 -3.345345510104E-01 -7.621649043699E-01 -1.265877249879E+00 1.896228150026E+00 -3.253138333461E-02 1.084417798662E+00 1.179907022124E+00 -9.431710748340E-02 7.801167781348E-01 2.342670994589E-01 -3.794681760039E-02 -2.784631547395E-01 -9.786155092824E-01 1.479520081376E+00 -1.482878463435E+00 9.558489883885E-01 -2.008459326217E-01 -1.038815136518E+01 -7.528857802681E+00 -4.407874554918E+00 -6.512879105218E+00 4.748101869908E-03 -5.741241239994E-01 7.231307735865E-02 8.944377333396E+00 4.875973360965E+00 2.377379474341E+01
 -7.708340246501E+00 -7.232700152782E+00 -4.894269622956E+00 -2.089464017593E+00 -2.010077892878E-01 1.005872106270E-01 1.659663662107E+00 4.435865035250E-01 -1.441257187169E-01 -1.588299973344E+00 -1.036617534977E+00 -1.129497159800E+00 -3.520267761174E-02 -1.037889744011E+00 -7.780345566393E-01 -1.191275433082E+00 -8.358413015303E-02 6.034852793014E-01 -1.101298845185E+00 1.138337458053E+00 5.367170175462E-01 2.008763615244E+00 2.463989035023E+00 2.195652625224E+00 7.129495990328E-01 -2.288077501501E-01 8.266272672174E-01 -1.040770794354E+00 -7.271122664053E-01 -1.118268684154E+00 1.960774049003E+01
 -6.299102760334E+00 -4.700791698526E+00 -5.529154398249E+00 -2.568662365866E-01 -3.298691179260E-01 1.086659004034E+00 1.376514066217E+00 2.037042069289E-01 -1.030251043335E-02 -2.773819765974E-01 -1.149391198404E+00 -1.382742176987E+00 1.784054130481E-01 -1.533420108266E+00 -6.408562033731E-01 3.754083276533E-01 -5.301518582582E-01 -2.240392583319E+00 -1.677437066508E+00 3.794153533531E-01 -3.244604142044E-01 1.623322007195E+00 3.813055489492E+00 2.660466373249E+00 -3.665627723526E-01 -2.322740426064E+00 -7.607525451586E-01 4.251022257660E-01 -7.088658749868E-01 1.616838895571E+00 7.941948790184E+00 1.995472456424E+01
 -6.669210069392E+00 -6.285743955662E+00 -6.456575902632E+00 6.104400648435E-01 1.339646341339E+00 -6.042699413078E-02 -5.453386406606E-01 4.866077574782E-02 3.507770849572E-01 1.517912670270E-01 -1.146081975712E+00 2.003891092718E-01 1.131079637903E+00 -5.042783566365E-02 9.677839291269E-02 -1.877411887271E-01 -1.060275946555E+00 -7.741353895447E+00 -6.867905561220E-01 1.265484421415E+00 5.316310100343E-01 2.107224488941E+00 -8.917026474991E-01 6.774841732680E-01 3.367583207001E-01 -1.852383648363E-01 -5.732461527529E-01 -1.517260340997E+00 6.894825411322E-01 -2.891166837879E+00 7.083406429021E+00 8.381777338809E-01 1.963050212523E+01
 8.629091137639E-01 8.103194218692E-01 -4.625584980036E-01 8.536610752064E-01 2.832490340002E-01 1.600628306476E+00 -1.317975769762E+00 -1.081842068746E+00 1.117270439274E-01 -2.714639297985E+00 -1.209046239232E+00 2.676388691153E+00 1.259467501820E-01 -1.484632220836E-01 -2.116687281410E-01 -2.267225211113E+00 4.611962422015E-01 1.003500092617E+00 -2.323419979949E+00 -3.787309860834E-01 -8.503029414937E-01 2.563144633100E-01 5.941646855323E-01 3.207309970471E-01 -3.488266773836E+00 4.614749848657E-01 -3.711841535095E+00 -3.553739145270E+00 3.053181795436E+00 -3.177179247305E+00 1.247217512886E-01 -5.313494359503E-01 6.308762376309E-01 1.213740523160E+01
 6.027708480501E-02 -4.904130822078E+00 -5.281536837689E+00 -1.095468330105E+00 -6.084256425447E-01 9.807741458966E-01 -1.050165586099E-01 -1.669037053895E+00 1.216107246859E+00 -3.354640609866E-01 -1.276135123538E+00 2.162499988325E+00 -8.488363133206E-01 -8.093224010742E-01 -9.232889411974E-01 1.413067831036E+00 -2.638651668368E+00 1.460187415643E+00 -2.993985874241E-01 -7.522510730864E-01 -1.166707736643E+00 2.469904970256E+00 -1.829006092659E+01 1.062507074774E-01 1.511173795248E+00 1.505336460461E-01 1.105077480267E+00 1.307024636401E+00 -2.726614005680E+00 1.164394413047E+00 2.220861062123E-02 -8.969058160533E-01 6.029932315336E-01 -3.925992086027E+00 3.178983805983E+01
 1.086954348300E+00 -2.607635480160E+00 -1.051836315879E+01 6.659285612366E-01 -7.641209195548E-01 8.294609371398E-02 2.282816848943E-01 1.799958442042E+00 -4.193073387890E+00 2.822924366953E+00 1.395950872726E+00 -4.330587650300E+00 2.079644496699E+00 1.207334892856E+00 1.410620697164E+00 4.177099985167E-01 1.162398627001E-01 -1.141674993966E-01 1.269797936172E+00 -1.952821749620E+00 -1.686543243453E+00 -3.907420826293E+00 -2.901368685470E+00 -2.391460365317E+00 -2.681082079839E+00 -1.613783525000E-01 -4.183542828149E+00 -1.973292129861E+00 3.308273753146E+00 -1.718266253191E+00 -1.543284073683E+00 5.921302814981E-02 -4.308192605044E-01 2.320205330256E+00 -1.582859597223E-02 2.593009800736E+01
 -1.536600712515E+00 -8.468320742912E-02 2.062746940791E-01 -1.763349348765E+00 -1.992812250227E+00 1.479214689876E+00 6.521448965222E-01 -4.346267860869E-01 5.482420994481E-01 5.547568591531E-01 9.654321420200E-01 -6.994631474719E-01 -2.926568239699E+00 -2.521538784635E-01 3.654249690445E+00 -1.599074101723E+00 -5.845395915732E-01 -4.048406109606E-01 -1.358640380170E+00 -1.381137019280E+00 3.231528089231E-01 -3.699171219567E-01 -6.441538260049E-01 -1.440375778806E+00 -1.092172497388E-01 9.690907712704E-01 -8.708848851243E-01 1.201656878555E+00 -2.427898175137E-02 1.403018503890E+00 -4.908735596878E+00 2.619502823858E+00 -3.385163903253E+00 7.235319157918E-01 1.214769090223E-01 1.156237711890E+00 1.312515459554E+01
 1.576137396164E+00 -1.025934133291E+01 3.050152325822E+00 -1.308847230941E+00 -1.655569859784E+00 1.075694986868E+00 -7.376188706492E-01 -1.164943432453E+00 5.647542362796E-01 -5.921948477068E-01 -7.150728833738E-01 -1.711828977063E+00 -1.905628095774E+00 -1.559854693524E+00 2.803981623332E+00 1.338539884897E+00 -1.201558303854E+00 -1.212292556605E+00 5.328105505026E-01 -1.188918934703E+00 -1.184778062589E-01 1.651064220124E-01 -8.093549015348E+00 -9.671057271773E+00 -5.722824553986E-02 -2.107906721643E-02 3.773818908180E-01 -6.242165219880E-01 -6.055480920067E-01 -2.381846597078E+00 1.794859446485E+00 -3.877438214324E+00 1.520329525028E+00 -1.242359907775E-01 9.813721372858E-01 2.388528299063E-02 -2.774185494081E-01 2.965462572155E+01
 -1.625961944213E+00 7.387421649842E-01 -7.820026572332E-01 1.725843012141E+00 1.698788250753E+00 -2.959006148490E+00 -5.955045850490E-01 -1.075455325573E+00 -7.494876072962E-01 5.308775681327E-01 5.069275191927E-01 -1.087112881430E+00 2.981255156993E+00 4.336364622449E+00 -7.520479076771E+00 1.274060933490E+00 -8.202740961205E-01 -6.899331726044E-01 -2.395688719474E-01 -1.657121272280E+00 -4.854477790955E-01 -2.458381451253E+00 -1.013899776204E+01 -1.297118973904E+01 -9.134803500679E-01 2.292893983625E-01 -3.833383509039E-01 1.004169375983E+00 -2.873913585307E-01 3.826377758896E-02 -2.725110309898E+00 1.336996078902E+00 -2.037822244285E+00 -6.148751613999E-02 -6.370219676652E-02 1.762128609781E+00 5.615165222722E-01 4.818476143099E+00 2.986770174181E+01
 -3.531783000170E-02 -1.658215506876E+00 6.147092347665E-01 1.179627443499E+00 2.543582030345E-01 -5.069741503608E-01 9.242181225216E-01 -1.231958585226E+00 -1.088254619568E+00 5.520707373521E-01 5.768239587380E-01 8.028231458627E-01 -6.001118492054E+00 5.039027694818E-01 -1.302579838034E+00 -2.898154085676E-01 7.936009847137E-01 8.659868874389E-03 -8.111268770883E-01 -9.277871361066E-01 1.046151217956E+00 -9.341908863101E+00 1.364078521532E+01 -1.726329420799E+00 -7.517169251457E-01 1.226936269737E+00 -7.270133536550E-02 -2.210316041168E-02 -9.352649779078E-01 -4.842525557038E-01 -1.039564856105E+00 -2.485753814430E-01 -1.290882158176E+00 1.030701965797E-01 -9.096569552267E-01 -5.957181902618E-01 -2.050817434126E+00 -2.602830507865E-01 -3.502725597976E-01 1.814476776053E+01
 1.004873401279E+00 1.403279864557E+00 -4.883653551631E-01 -4.098884471818E-01 2.179166307217E-01 1.862853126137E-01 -1.006982144094E+00 8.141594387688E-01 1.745281844500E+00 2.492861889307E-01 -1.394979735171E+00 1.034356072423E-01 -2.387693057228E+00 -1.270896084588E+00 -3.649645380007E-01 -1.779063628813E+00 1.867052013272E-01 -2.306779554630E-01 -1.691512253848E+00 -2.643489693770E+00 1.114616714119E+00 1.292980268005E+01 -1.603963158479E+01 1.516982081431E+00 2.303128694064E-01 -1.709021821303E+00 -1.132489780152E+00 1.427625180682E+00 -4.388055452996E+00 -5.500059499367E-01 -1.250401055573E-01 3.269484017160E-01 -3.549250275979E-01 1.282173303091E+00 -5.121842709051E-01 6.797522249745E-01 6.211785721640E-01 -2.309818055962E-01 9.752691137507E-01 -9.921073964662E+00 2.414549535387E+01
 3.110100914419E-01 -2.642904491909E-03 -4.280550741996E-01 4.893005017919E-01 -5.618765150797E-01 6.393903634667E-01 -1.011917269657E+00 6.419267195310E-01 7.373598916422E-03 3.185697031913E-02 1.894189262351E-01 5.570827830562E-01 6.210607082391E-01 -9.872810783266E-01 -1.171447059196E-01 8.657193949361E-02 6.981357234723E-01 2.126994248391E-01 -3.324168494258E-03 1.735598703304E+00 -1.717778618532E+00 -1.279859190749E+00 2.224503578074E+00 -7.196888156779E-02 -3.909260879503E-01 5.054969276432E-01 6.303905984115E-02 4.275263787003E-01 -3.473201885036E+00 -9.854477332098E-01 -4.286509004076E-01 9.284844246594E-01 -5.405517270006E-01 -4.776504117872E-01 1.722778362886E-01 -8.634191005460E-01 -1.960911321131E+00 9.416223936086E-01 -2.895837787461E+00 4.444178250775E+00 -2.851678134643E+00 6.830617363320E+00
 -1.823646525733E+00 1.709858627789E+00 7.634107132059E-01 -4.608323291342E+00 6.312883325251E+00 -3.872330756833E+00 -1.011242182969E+00 -3.777301190368E-01 1.334192043629E+00 -4.753359471237E+00 -3.707805470251E-01 -5.739903830388E+00 -1.857376211783E-01 3.950309235402E-01 1.983531038208E-01 1.178667710142E+00 -1.790860709806E+00 1.365771866518E+00 1.054981796066E-01 5.469295268461E-01 1.538209481508E-01 -1.519186596138E+00 -4.324828291435E-01 -1.515238947347E+00 -2.928748858408E+00 8.988548219599E-01 7.026398568228E+00 -4.505436782223E-01 1.548745355790E-01 -1.099893863813E+00 -3.410886677054E+00 -4.882928024150E+00 2.230810411261E+00 4.777056801917E-01 6.146990543105E-01 -1.346887134979E+00 3.656750400109E-01 4.802177035096E-01 8.920450193546E-01 -5.602644138800E-01 -4.239985942201E-01 -8.582654905838E-01 1.912439270621E+01
 -4.927683886081E-01 -5.963105925128E+00 7.224540438124E+00 6.221531738725E+00 -7.788335380651E+00 2.127553837272E+00 -6.825455709524E-01 -1.033718608135E+00 -1.941195300878E-02 -1.685006797830E+00 7.630462464476E-01 -2.426039700815E+00 -4.154128460077E-01 1.119860638538E+00 1.477440067967E+00 1.154872593225E+00 7.000766347855E-01 7.144681665607E-01 -2.021033278338E-01 -1.162770033438E+00 1.432320226154E+00 8.970991865865E-01 -3.589316813183E+00 -1.748801138187E+00 1.543944412577E+00 -5.282060517696E-01 -3.286521705489E+00 -3.023045249120E-01 1.906326964116E-01 -1.222296758040E+00 -3.132170370567E+00 -8.628273702918E+00 3.669621183450E+00 4.539005619039E-01 2.161974960647E+00 -1.874545763081E-01 3.791228718889E-01 -6.214222373914E-02 -5.979112801803E-01 -9.035918427897E-01 1.094735558156E+00 -1.607847152389E-01 -2.834567695405E+00 2.272554200398E+01
 8.855341488488E-01 6.628104956881E+00 -1.457737558126E+01 -6.784625657095E-01 1.059701587607E+00 2.709037371415E-01 -1.378043603884E-01 3.178938713070E-01 -4.694724916516E-01 -4.453004784230E+00 -2.284551285649E+00 -8.642672702618E+00 9.520895574137E-02 8.405862244967E-03 3.223875484328E-01 -1.023049071180E+00 -8.650266290984E-01 -6.501760531062E-01 -5.125195583658E-01 5.295549175904E-01 -4.698120395650E-01 -3.061198425331E-01 2.035588539340E+00 -9.828013933017E-01 3.937404373450E+00 -8.280803163738E-01 -1.067325992082E+01 9.052194266063E-02 -1.790519105574E-02 1.287810952433E-01 1.414765197318E+00 2.361825293278E+00 -7.555988810464E-01 2.886321788581E-01 -1.519498157068E+00 1.244449339525E+00 -5.702670740764E-01 -8.077519906905E-02 8.935633154314E-01 5.014431098318E-01 -3.485161576740E-01 -6.899989650036E-01 4.677173497750E-01 -6.996722092261E+00 3.505108299259E+01

