#BIOSYM hessian 1
@Type: Hessian Update
@Units
 distance: 	A
 energy: 	Kcal/Mol
#header
@natom 12

#label
L1      L2      L3      L4      L5      L6      L7      L8      L9      L10     L11     L12

#element
Li Li Li Li Li Li Li Li Li Li Li Li

#matrix
36
 1.974858695531E+01
 -3.936001407122E+00 3.739597420641E+01
 4.115098840462E+00 -5.644153944729E+00 2.150117826427E+01
 -1.408367676408E+00 -4.166169427220E+00 -9.999096637201E-01 3.353379189317E+01
 -3.888959306004E+00 -3.261390603950E+00 -1.562101668555E+00 -1.562912414276E+00 1.636311551976E+01
 2.571184153754E-01 2.574354598029E+00 -1.312085322409E+00 3.978287315988E+00 4.074373776198E+00 1.131455644552E+01
 5.947024844001E-01 -9.837275014123E-01 1.021322557628E+00 -2.813507973537E+00 4.201312827448E+00 2.035566755337E+00 1.515602836104E+01
 1.410382198230E+00 -4.640538119025E+00 1.216421254847E+00 6.309020203506E+00 -7.193861909071E+00 -3.408499661510E+00 8.033251607271E-01 1.943433327196E+01
 1.578234512019E-01 -2.151732678352E+00 8.156220893668E-01 2.390181416049E+00 -1.996838344141E+00 -3.191149933436E+00 3.604632620744E+00 1.320108577673E+00 2.554582414873E+01
 1.484385714567E-01 2.670700982824E+00 -7.645553126122E-01 -1.195514603233E+00 2.273101568629E+00 1.580942521094E+00 -9.620347771077E+00 -2.272307687582E+00 -3.021897879417E+00 3.724754092056E+01
 4.476229416023E-01 -1.542321106459E+00 1.402512295247E+00 -1.188583969496E+00 4.073545480384E-01 4.985516614783E-01 -1.731114470875E+00 2.315231038706E+00 -5.499166619878E-01 -1.433398367572E+01 2.942878386641E+01
 4.869877984106E-03 4.713575054823E-01 5.077949183963E-01 4.857123357504E-01 1.001662023251E+00 6.516241538279E-01 -5.383911967012E+00 4.637149680064E-01 -4.960354660520E+00 6.174012655997E-02 5.793235268971E+00 1.844396939948E+01
 -9.741923628289E+00 2.110893362867E+00 1.463312480331E-01 1.133885701363E+00 -5.155894865638E-01 3.350005526221E-01 2.338995707803E-01 1.336813203891E+00 -1.077848758510E+00 -3.285085320102E-01 -2.591048930221E+00 5.037771391038E-01 3.312569782530E+01
 8.268612859020E-01 8.454020576157E-01 -1.667338239449E+00 -1.250181532089E+00 1.097815826729E+00 6.184835769073E-01 -8.015368937106E-01 -1.159901567936E+00 -2.091786731519E+00 -2.450597151055E+00 -9.093284560429E+00 1.217811003475E+00 1.259766230886E+01 2.701203871006E+01
 1.143679696159E-01 -5.465442404525E-01 6.615090279905E-01 -1.464682154610E+00 6.394807722467E-01 -1.335882025897E+00 -1.632533446973E+00 -3.829958595832E+00 -1.741186665434E+00 8.216021860506E-01 -3.968205779615E+00 -1.875799980800E+00 -3.151093919654E+00 -7.811503649635E-01 2.037525896647E+01
 -1.726617201784E+00 1.958622234048E+00 6.503378423855E-01 -3.533907095159E+00 -1.143982940007E+00 1.679197329100E+00 -9.909054686961E-01 -2.559495069994E+00 2.831185971710E+00 -3.950669963513E+00 4.297132106557E+00 -4.770299600839E+00 -7.261072582350E+00 -3.904169280319E+00 -4.069202367291E+00 1.617060687513E+01
 2.240765495924E-01 -3.034397009437E+00 -2.928637938593E+00 8.892949080416E-03 -9.090634706190E-01 -3.311154661498E-01 -2.582940253200E+00 -7.941924138581E+00 7.121627102922E+00 3.184693111749E+00 -5.335028549230E+00 1.646462505745E+00 -3.477418028385E+00 -2.245563600048E+00 1.174443272689E-01 2.950502196507E+00 2.129450137241E+01
 1.647144664231E+00 3.197917995617E-01 -2.312116976657E+00 3.395841565099E+00 6.785949583001E-02 -1.684037748554E+00 2.592706480665E+00 4.129748131472E+00 -1.307052114710E+00 -2.506949281415E+00 2.111840620102E+00 -2.888656633114E+00 -7.268426311898E+00 -3.843728030105E+00 -4.455229948921E+00 -4.181506578499E-01 -5.946057532542E+00 4.383715491235E+01
 -2.347217144560E+00 4.664626939753E+00 -2.091646387903E+00 -2.388912272921E+01 7.461216006591E-01 -5.578568482809E+00 -5.918494426991E-01 -2.967712272965E+00 -3.538021444218E+00 -1.651594289690E+01 1.687231590622E+01 4.232024642676E+00 -1.556692967185E+01 -7.036118097535E+00 4.987166778810E+00 7.567463581409E-01 -9.009201738338E-01 2.006900717355E+00 6.518970301935E+01
 5.403356853895E+00 -1.598543181997E+01 4.395958720515E+00 1.653936319405E+00 -2.405989776475E+00 -1.206574781354E+00 -8.224989022604E-01 -2.480872230495E+00 -3.147096782667E+00 1.346784305781E+01 -1.497192064190E+01 -5.845533889865E+00 -8.819459673986E+00 -8.626872860263E+00 7.086775150778E+00 -1.761826248261E+00 -2.100824688342E+00 2.235551297638E+00 -5.841118866399E+00 6.663054684518E+01
 -4.267085089404E-01 2.238957203027E+00 1.138217834732E+00 -6.993408809884E+00 1.390876372619E+00 2.220572845820E-01 1.625370714704E-01 -2.569271959808E+00 -8.208191180228E-01 3.509411120395E+00 -3.117542330825E+00 -1.789262400850E+00 3.052910826261E+00 1.836613956302E+00 8.533721100649E-01 1.423826570612E+00 2.186343495538E+00 -3.291150403201E+01 -3.988279882030E-02 -1.111494771447E+01 7.093913322590E+01
 -1.692362279320E+00 -7.068057780492E-01 -2.450206619130E-01 9.882827698794E-01 -9.090548490818E-01 -2.348124779643E-01 4.530728476101E-01 -5.228152702593E-01 -1.941591276013E+00 -1.465988825652E+00 -1.000004096908E+00 1.011324865209E+00 5.825424737494E-01 8.532738551134E-01 5.075853627782E-01 -6.264678210077E-01 -9.611546050367E-01 -9.345894455570E-01 -2.780159122656E+00 -6.353890895608E-01 8.518449065230E+00 3.178218575706E+01
 -1.241653200540E-01 -6.766158004588E+00 4.697951742062E+00 -6.064106891681E-01 -2.128117898343E+00 -3.168313940490E+00 3.947706756399E-01 6.362295897459E-02 1.961354771485E+00 -1.678860120640E+00 8.153381496446E-01 -5.254538680639E-01 1.603035409002E+00 -4.091974826921E-01 -6.073564660631E-01 4.288106060073E-01 1.901828472952E+00 -2.497296396733E-01 -9.972271613664E-01 -1.053016091315E+00 -5.249449740150E+00 5.085012184335E+00 2.529630886812E+01
 3.184857613928E-01 3.371848030940E+00 -1.206349719969E+01 -1.932082757712E+00 -1.332122956971E+00 -3.976926216034E+00 -5.528897963398E-01 2.114826875078E+00 -1.082334855381E+00 8.125859282614E-01 -4.352073827719E-01 -1.087366953132E+00 -2.030278873104E+00 -1.707846082404E+00 1.300615695402E+00 1.965835485116E+00 -2.270491606997E+00 1.073123207256E+00 2.237866418264E+00 -4.576647034126E+00 -9.574483964260E+00 1.030911851181E+00 5.726011225160E+00 3.608571770027E+01
 1.076258399278E+00 4.395423345660E-01 2.644221534427E-01 2.250065402800E-01 9.632789449544E-01 -1.277952596147E+00 -8.271778018102E-01 -1.974397785276E-01 -6.623398965486E-01 -3.455893047228E+00 1.210469020316E-01 3.785079644902E+00 4.470849308388E-01 -6.011714622964E-01 1.160273766066E+00 -1.370702581789E+00 -6.938718494053E-01 3.331920422440E-01 -3.650291815995E+00 -4.964965772870E+00 1.993505030235E+00 -9.384679128194E-01 2.553184065293E+00 2.568098870050E+00 1.238293849349E+01
 -6.301374241880E-01 8.353728260643E-01 -1.988084006702E-01 4.808751814348E-01 -7.785964674185E-01 3.580433850617E-01 9.375058319443E-01 8.076334107913E-01 -3.369033708283E-01 -7.036086063866E-02 -3.748124770923E-01 4.986212328279E-01 1.305828010130E+00 -3.810624550735E-01 -1.414405727981E+00 -1.684238405249E+00 -2.204783705785E+00 8.050186785149E-01 -6.245944328764E+00 -1.956976846259E+01 1.429577061738E+01 2.307050777180E+00 -8.107937179506E+00 -5.783955806499E-01 6.895822412892E+00 3.073573928095E+01
 -2.520302390060E-01 3.865473062733E-01 -6.106575201316E-01 5.213286202153E-01 -1.019481394059E+00 -2.529627095575E-01 -1.704210755162E+00 9.055814569918E-01 -1.315528831655E+01 1.210730936736E+00 9.396499089904E-02 -3.480589104814E+00 -4.636357212350E-01 3.533991669123E-02 1.321761988736E+00 2.440067873225E+00 1.918344778624E+00 -1.357232531565E-01 6.022637853130E+00 1.459254038153E+01 -1.090335808637E+01 -5.107747036191E+00 -3.584990692715E+00 -3.124528033737E+00 -5.111016535413E+00 -1.202346384688E+01 3.040240386434E+01
 6.220727108005E-01 -1.938633548552E+00 1.293099373694E+00 -1.996871149491E+00 -9.139007544580E-02 -1.922503343341E+00 -1.023777830714E+00 -1.213665198316E+00 1.395703174062E-01 -1.668137767832E-01 -1.740020315054E+00 -4.439900779995E-01 6.693071037273E-01 7.649340911086E-02 1.146424876801E+00 1.364288737036E+00 1.922602589604E+00 3.242218746897E-01 -6.189382690017E+00 1.520470872025E+00 -7.589830302057E+00 -1.238530225853E+01 4.257548933070E+00 -2.497842115625E-01 -2.700516318645E+00 -1.566115600701E+00 5.970706707118E-01 2.678026811249E+01
 -4.326675023197E-01 4.404040279443E+00 -1.573343546968E+00 3.332357433097E-01 -1.467816488987E+00 -1.598384920261E+00 -1.918541567398E-01 -1.328552321759E+00 -5.666377434088E-01 -5.948097408211E-01 -3.670037695759E+00 -2.916699867303E+00 -2.517092060628E+00 -1.487282612540E+00 4.945423668050E+00 -7.491182496939E-01 -6.681225106718E-01 1.389981282654E+00 3.224723573566E+00 -2.067118698454E-01 3.735272877551E+00 7.636068638514E+00 -2.452850993542E+00 2.411267233490E+00 -5.221070052286E+00 -2.712970930969E+00 -5.014886343592E+00 -7.598575337547E+00 3.618642653151E+01
 -1.621549823104E+00 2.420446734040E+00 -1.967155185582E+00 -1.230671340237E+00 3.983994767974E-01 -1.472427958220E+00 -1.386842548210E-01 -2.804405546554E-01 -2.289411048656E+00 -3.123758877872E+00 -2.586944664203E+00 -8.139355146469E-01 6.168062177767E+00 9.235934705512E+00 -8.688973845378E+00 -2.443836580191E+00 -2.363819985831E+00 1.173835023283E+00 -6.106460187925E+00 -1.839356358538E+00 -1.075281483680E+01 1.124917959590E+00 -1.302672814867E+00 8.921233488490E-01 -2.816225361184E-01 -1.866071505525E+00 -2.470888544440E+00 2.268440385829E+00 5.824255114020E+00 3.938914308842E+01
 -4.909994141918E+00 -1.326269248242E+00 -3.529082468866E+00 -8.965396639603E-01 -7.033418365053E-01 5.379031575101E-01 -3.583300413125E-01 3.772278549076E-01 8.757352974029E-01 -2.807562684332E-02 6.078043102257E-01 -8.765752092975E-01 -3.396782856666E+00 1.873697163129E+00 1.987879801596E+00 1.497271775573E+00 -1.251913378536E-02 1.420641204616E+00 3.786171688049E+00 -2.225590922036E-01 -2.749432592600E+00 -1.052535664861E+01 -9.020724091200E+00 2.255179479312E+00 -1.164297641194E+00 9.975142811908E-02 7.324288013005E-01 -2.030822449238E+00 3.350785659832E+00 -3.035046697511E-02 2.032724064737E+01
 1.487558585097E+00 -5.845657589281E+00 1.035390897901E+00 -4.959721666747E-01 6.829988113919E-01 1.060201484579E+00 9.288927449893E-01 1.450150953340E+00 1.935603722978E-01 -1.185262425048E+00 1.736397020407E+00 -6.923691505971E-01 -1.100905415379E+00 -4.184778208390E+00 -3.277733258184E+00 2.152082414246E+00 6.213539830385E-01 -5.673529583586E-01 -7.066257265898E-01 7.294902784871E-03 -1.335470030242E+00 -9.554142747313E+00 -7.861528609873E+00 7.848562190451E-01 7.876208357960E-01 1.706371037676E+00 2.207781453468E+00 3.375880387823E+00 -2.101110463349E+01 1.157110230546E+00 5.364875383887E+00 3.562474435441E+01
 -6.132458793981E+00 -4.049511486093E+00 -8.796281066260E+00 3.908195984966E+00 -2.271187185114E+00 2.099730324209E-01 2.507758521414E+00 1.298666338354E+00 7.002986895591E+00 -5.142508124870E+00 1.808216591012E+00 -2.833271288269E+00 1.886728878338E+00 -3.922202348822E+00 -7.680780085820E+00 2.000247604284E+00 9.399437405479E-01 -5.066627315049E-01 -1.680433877280E+00 -2.012985568313E+00 -1.931472498320E+00 7.900457623897E-01 2.203290630126E+00 2.823609081372E-02 -1.018118386589E+00 3.159154742828E-01 -3.417500646751E+00 -1.154383735828E+00 -1.689754375097E+00 -9.656039484637E-01 1.703877806115E+00 4.404312216473E-03 3.523496314804E+01
 -3.635770489617E-01 1.213221056541E+00 1.396024793694E-01 -1.471360136957E-01 6.314159661942E-01 -1.390179146767E+00 -2.118069339824E-01 -5.033333436182E-01 2.425701801922E-01 -6.682244487781E-01 2.388332916321E-01 1.390248222962E+00 1.027996654135E-01 -1.842136051059E-01 -4.077888531898E-01 -3.285710315781E-01 3.380566471141E-01 -5.925328521812E-01 1.798274448348E+00 1.022210542404E+00 -8.613766719013E-01 -3.391978979700E+00 -1.894974490920E+00 -6.423928154859E+00 -2.394124441078E-02 -1.830037022158E+00 1.114375531688E+00 -2.942450190635E+00 2.760373484814E+00 5.415513544057E+00 -2.300485041250E+00 -1.054001870833E+00 2.331048361042E+00 8.477096819231E+00
 -7.879274546307E-01 -2.404895116827E+00 8.261488283918E-01 4.842698021883E-01 -4.064480910601E-01 5.288802875120E-01 -1.521350625498E-01 6.746786530965E-01 2.442614885240E-01 9.898429404872E-01 2.843004076642E-01 -1.112807731930E+00 6.728130041895E-02 -1.367313247030E+00 1.636230514746E+00 1.568063615977E-02 6.220238443120E-01 -4.529231450940E-01 -8.121213927482E-01 7.635666932258E-01 -2.297152746915E+00 -1.592039018934E+00 7.017078101720E-01 -3.508098939794E+00 -8.197658014726E-02 4.481512295788E-02 1.502721992767E+00 2.995403883984E+00 -5.585016753393E+00 -8.796840377295E+00 -3.887283981639E-01 -2.926242022011E+00 7.375203876899E+00 -7.375506560643E-01 9.598822698893E+00
 1.817838384768E+00 6.086391722731E-01 2.437471135976E+00 -2.058792511904E+00 6.090796318978E-01 8.272609977566E-01 -2.512293786951E+00 -1.360896830618E+00 -4.816836420977E+00 6.562656657088E+00 -1.050504608308E+00 1.258480644403E-01 1.898472762277E+00 1.069868638374E+00 1.265334763587E+00 -1.289209470261E+00 -9.004342053259E-02 1.168702957321E-01 -4.515832312813E-01 1.432316578874E+00 -4.469065518646E+00 -4.519473968741E+00 9.935879318902E-02 -8.470678820348E+00 -1.753521556124E+00 1.446790444708E-01 5.827330362438E+00 5.591664171656E+00 -4.946493379135E+00 -1.203389057837E+01 -2.328204810114E+00 -5.703795726729E-01 -1.634458690148E+01 -9.575526404124E-01 4.054375952188E+00 3.553494261989E+01

