#BIOSYM hessian 1
@Type: Hessian Update
@Units
 distance: 	A
 energy: 	Kcal/Mol
#header
@natom 19

#label
L1      L2      L3      L4      L5      L6      L7      L8      L9      L10     L11     L12     L13     L14     L15     L16     L17     L18     L19

#element
Li Li Li Li Li Li Li Li Li Li Li Li Li Li Li Li Li Li Li

#matrix
57
 5.109956666944E+01
 1.455324417808E-01 2.026995179756E+01
 7.274482355728E+00 4.295530592450E-01 3.611664546947E+01
 1.008845112600E+00 -8.843946266928E-01 1.411336242289E-01 2.754528894937E+01
 -6.329495743452E-01 2.266248425265E-01 -1.106577314707E+00 2.510119620996E+00 8.665739006872E+00
 2.327863977893E-01 5.700001265622E-01 4.662197091029E-02 -1.272319706994E+00 -3.357570795601E+00 1.221713706271E+01
 -1.188505449023E+00 4.562492576211E-01 -1.760961799432E+00 -4.642861558678E+00 -3.429382985088E+00 3.844443106707E+00 2.453009048674E+01
 1.151083749587E-01 4.002293885419E-01 9.441574646279E-01 -1.539701053871E+00 -2.279453412501E+00 2.551819632744E+00 2.483652425150E+00 1.616622983005E+01
 4.617881344234E-01 -1.907126130901E+00 4.615505856809E-02 3.029517160207E+00 1.967492707781E+00 -3.077366872889E+00 7.820400564186E+00 9.497371506807E-01 2.512622772531E+01
 -1.116868764259E+00 -2.731296472436E-01 -8.697821305597E-01 3.543852874280E-01 -1.916303375839E-02 -1.022348681192E-01 -3.081487947806E+00 -1.892144032054E+00 -1.257068823392E+00 2.190380620415E+01
 -5.016214233695E-01 -4.340294992465E-01 5.371874548526E-01 -1.149579347626E+00 -6.505155477175E-01 -4.503503095461E-01 -2.561613908440E+00 -7.133134300501E+00 5.682250948157E-01 -3.729246912482E+00 2.063571008226E+01
 1.708513195775E+00 -2.684367310859E-01 5.791777503832E-01 -2.290410761888E-01 1.222820305964E-01 -5.871812221643E-01 -6.186453382687E-01 -2.185421139362E+00 8.818024881914E-01 5.512507526274E+00 -4.619453065758E+00 1.251243587652E+01
 7.047878000994E-01 2.040306519244E-01 1.070641226914E+00 1.645872672330E-01 3.095607757029E-01 1.123094244824E+00 1.464660887490E+00 -8.562582378789E-01 1.218740215504E+00 -8.883453015372E+00 -2.834078277440E-01 2.535865264744E+00 1.806824975345E+01
 -7.775620377539E-01 -9.084173180425E-01 1.849307953316E-01 -6.064160085464E-01 -2.806228801519E-01 3.013390104997E-02 1.275240080489E+00 2.877042177483E-02 4.044710288552E-01 1.166431133110E+00 -5.508999295852E-01 -1.368478021834E-01 3.546466899016E+00 2.167299164536E+01
 -7.667520245557E-01 -4.155116719203E-01 -4.140657537342E-01 -1.959932387151E-01 -7.989638892472E-01 1.530889588812E-01 4.024637839009E-01 2.614605986147E-01 3.416305430366E-01 -2.493201197763E-01 1.700625141180E-01 -1.880383986211E+00 -6.925155625441E+00 -5.178268393071E+00 1.449368930294E+01
 -2.880848549534E+00 -4.539047285075E+00 -1.945120694586E+00 -2.593438816349E-01 9.048366450639E-01 1.286742490069E-01 -3.943659053660E-01 -1.442487506890E+00 6.386841032272E-01 1.012631236351E+00 -1.605604232146E+00 1.159182711870E+00 -1.123269664355E+00 3.902722953724E-01 -7.548861271438E-01 2.855305923227E+01
 -3.326383383032E+00 -7.007218653208E+00 -3.020898983910E+00 -4.197383637028E-01 -7.719642452289E-01 7.567068696705E-02 2.063528621698E-01 -6.681753651608E-01 -5.452980768491E-01 5.703520493186E-01 4.317888697669E-01 -1.393484045017E+00 2.578610032020E+00 -4.880509075729E+00 4.169847887527E+00 -1.298370634586E+00 2.793244789053E+01
 -1.237460120749E-02 -2.675197644444E+00 -4.447846655389E-01 5.246148994621E-01 3.736595189673E-02 -1.333272095789E-01 2.304469190547E-01 -1.724466581842E-01 -8.166682968032E-01 4.780728576522E-01 2.828884940285E-01 5.718896810756E-01 -1.711990236372E+00 2.802042227404E+00 -3.557455403585E+00 6.095201899361E-03 8.586539015519E-01 3.976088895935E+01
 -6.163542174296E+00 1.116784391480E+00 -6.910258935672E+00 5.244318607140E-01 -6.425892021132E-01 -9.525473848146E-01 -1.948444090891E+00 1.579913144023E+00 2.796236831023E+00 -1.992595854685E-01 -3.517006364380E-01 -2.569914096811E-01 5.877293737107E-01 5.811079563695E-01 -1.031967447792E-01 7.663432205897E-01 -1.508977951677E+00 -6.085838367718E-01 1.470179987204E+01
 3.279216427753E-02 -3.635610243459E-01 2.571155189480E+00 1.028508588912E+00 1.913261018813E-01 -4.343430426532E-01 2.255599403963E+00 -3.440174111230E+00 -1.288808557812E+00 -8.571701502260E-01 7.287643005187E-01 1.544463855313E-01 1.601937874210E+00 5.300385918855E-01 -6.594485705622E-01 1.763147653754E-01 -1.090411506440E-01 6.239377605042E-01 1.900291610116E-01 1.453848517461E+01
 -6.334622784602E+00 1.784704656594E+00 -8.971375155737E+00 -1.254851493654E+00 1.021671203655E+00 -1.047769385550E-02 1.382215144703E+00 -9.073748133491E-01 5.743113196995E-01 5.538266502381E-01 -1.516676677223E-01 -1.369458244897E+00 -1.021619343562E+00 -1.309847685171E-01 3.540214786678E-02 1.373490752989E-02 3.410665041778E-02 1.764716943778E-01 3.347089445570E+00 6.564728007575E+00 2.999024643600E+01
 5.104117418968E-01 -2.056457410646E+00 2.486391274949E+00 4.565900323727E-01 3.568438111539E-01 2.550650054561E-02 3.483172388173E-02 9.222169500249E-01 4.002928606518E-01 1.320830386549E+00 -6.645021567297E-01 -5.109666442807E-01 -1.412503812380E+00 5.116566197331E-01 8.622579846524E-01 -1.607274554411E+00 -2.435033067556E-01 -3.731194604485E-01 -4.758809518858E+00 -3.071661256122E+00 -1.699530479309E+00 1.737582734142E+01
 -1.918165200177E+00 -3.126664355140E+00 3.804147853410E+00 -4.937831955225E-02 -4.703584262620E-01 2.220054203850E-01 -1.060163962775E+00 1.113674233046E+00 -1.314069986422E-01 -1.430956529982E-01 -2.618478389757E-01 3.934788958416E-01 1.162176429283E+00 -6.428619758317E+00 -2.013161233280E+00 -4.924291398619E-01 1.106866592319E+00 -3.415796686840E+00 -3.166733333357E+00 -1.795037813830E+00 -7.885440162418E-01 -1.159250340460E+00 1.610057772633E+01
 2.674027896088E+00 4.059408095138E+00 -6.230879632603E+00 6.783584018288E-01 -9.841890780073E-01 -8.423491399802E-01 -7.339796132825E-01 1.952282789392E-01 1.904035747616E+00 4.547276796270E-01 -7.558726074326E-01 -4.340844997481E-01 -1.619737868025E-01 -3.182003894454E-01 -6.342466344001E-01 -7.542710471821E-01 -2.899426536745E+00 -1.556236375979E+01 -1.712535515485E+00 -2.166436213020E+00 1.854449883628E-01 -1.814092981728E+00 1.897323937533E+00 2.766576727718E+01
 -1.911161081903E+01 7.245310924706E-02 3.356725155384E+00 -1.164930508081E+00 4.064419766316E-01 1.161192410922E+00 2.768264663564E-01 3.938366184328E-01 -1.077507570760E+00 -7.518050572887E-01 9.141982078942E-01 6.204900106303E-01 1.314094209289E+00 1.768424602562E-01 -1.974540890861E-01 -2.280820020288E+00 2.520110701841E+00 1.085477922622E+00 8.749272001179E-01 -2.875252434080E-01 5.173830286389E-01 -4.697357876029E+00 3.848121173450E+00 -4.257541725132E+00 2.688628507355E+01
 -2.240317338773E+00 7.100292291987E-01 3.171736634793E-01 -1.556214937056E-01 7.172655385082E-01 -1.714564435472E-01 -5.048963421946E-01 -1.051774920572E+00 9.338764983544E-01 6.220054401526E-01 -5.971057067201E-01 3.993528663301E-02 -5.440986015394E-01 1.395307483653E-01 -5.171216131984E-01 4.304830292568E+00 -7.135037143361E+00 -2.215677333192E+00 1.143808966733E+00 7.600534211963E-01 1.388427367462E+00 3.498802879234E+00 -4.663218109361E+00 1.656410887771E+00 -4.745090564805E+00 1.091768043633E+01
 8.464102676174E-01 -2.905854108245E-02 -1.338915151376E+00 -7.350385803745E-01 6.263152623112E-01 -6.018712861392E-01 -4.047374874556E-01 1.071317391332E+00 -1.081932499678E+00 -6.647116155141E-01 -2.882146911968E-01 8.956743144672E-01 2.061710287198E-01 6.456412173986E-02 7.707534208709E-02 2.225558373740E+00 -1.954748534840E+00 -1.421045440138E+00 9.262242518673E-01 3.488860973616E-02 -1.394259728043E-01 -3.482736554436E+00 2.806536604078E+00 -1.439175617612E+00 -3.903474826264E+00 -1.155263221761E+00 1.275064011691E+01
 -7.864287525308E-01 3.731171341204E+00 -9.506947613223E-01 1.184283326582E+00 3.098680780954E-01 5.427510095144E-01 -1.434615248347E+01 -2.653985490398E+00 -7.168856114184E+00 -4.109723262742E+00 7.804259848701E+00 -1.116443897838E+00 -4.544432656855E+00 -7.210138126691E+00 2.033139587805E+00 -1.041437370736E+01 9.833131687789E-01 -4.651562567759E+00 -1.307015044801E+00 -1.196199182535E+00 -6.232003247241E-01 -6.114882026748E+00 2.234948372184E+00 5.503633900683E+00 6.900857652538E-01 -5.304951101469E-01 -1.440056983562E+00 4.848231445386E+01
 5.149338029003E+00 -6.508252110039E+00 1.632181680190E-01 1.530773073480E+00 -4.695900422049E-02 1.495594870252E+00 -3.368030797750E+00 1.426962208593E+00 -3.503382038634E+00 6.534430436816E+00 -9.823477449741E+00 1.217079280802E+00 -7.304773715893E+00 -9.690059060428E+00 2.767391338454E+00 2.292334760944E+00 -4.965287065281E-01 -2.626145626521E-01 1.864097660748E-01 -1.152393911321E+01 -7.581002317846E+00 2.806385574716E+00 9.063758351623E-01 -2.333367208254E+00 -1.573532621800E+00 -2.836974924984E-01 3.421468047535E-01 1.867382757806E+00 5.104505911950E+01
 5.433504511168E-02 7.694447326199E-01 -1.547336468903E+00 -4.599188844165E-01 -3.593327057584E-01 7.693956928985E-01 -4.139596463168E+00 -1.334915271753E-01 -3.772581280729E+00 -8.847255212035E-01 1.082127505250E+00 2.769769399875E-02 1.619123189939E+00 3.083111599344E+00 -6.499315043515E-01 -5.051250661820E+00 2.561593395266E-01 -2.139467572431E+00 -1.546906418240E+00 -8.820468558731E+00 -5.353450154290E+00 6.135148591660E+00 -1.981391080641E+00 -5.415368735519E+00 8.542738684609E-01 6.752641360684E-01 -2.910611579094E-01 6.695232679611E-01 6.124911296557E+00 3.547083951579E+01
 -1.873248702380E+01 1.121279823792E-01 4.220804564964E+00 -1.742724136399E+01 4.228900417020E+00 3.644940025110E+00 -1.644367992393E+00 2.011704643057E+00 -1.342682417605E+00 1.376986821714E+00 2.149737094659E-01 -9.554892462289E-01 -1.969923335180E+00 6.067550130919E-02 2.315752725873E-01 -2.890206336038E-01 -4.519868206289E-01 -8.601403332857E-01 -1.212944206783E+00 6.197593391802E-01 4.717865968560E+00 -1.320523166385E+00 -2.295268694133E-01 -2.313430109954E+00 2.379111040024E+00 -6.478023612307E-01 1.641708996832E-01 -2.732206390644E+00 -4.976783263896E+00 2.163769261703E+00 4.704453974748E+01
 1.139262783570E+00 -2.588540377766E-01 -5.252791335390E-01 1.494482455587E+00 -1.400010592401E-01 1.406016767471E-01 4.024675414327E+00 -4.468443531440E+00 3.364129950533E+00 -1.115465325776E+00 1.144070186758E+00 -2.993212848741E-01 -1.815302551527E-01 -2.038640929498E-01 -2.587260901434E-01 4.707815957835E-01 4.146599372508E-01 -2.526852275703E-01 1.161427127769E-01 1.885202677159E+00 9.644672510014E-01 -5.977347045469E-01 -1.351921410319E+00 1.157745640325E+00 -1.086677873172E+00 1.502909176228E+00 -1.150495433310E+00 -3.746230938107E+00 -9.586429176146E+00 3.428394689810E+00 -5.511805500906E-01 2.335143733308E+01
 1.571888350225E-01 9.555915595724E-01 -3.351021361086E-01 2.840126873823E+00 1.528175092352E+00 -1.308544624074E+00 -2.654924628065E+00 3.138480686434E+00 -3.256496398787E+00 1.323026311843E+00 -1.638008608539E+00 -1.161912467683E-01 -6.810485378382E-01 -6.613628079423E-01 -2.382726300281E-01 -1.580783257985E+00 8.781145728769E-01 4.605707764883E-01 4.517128394787E+00 1.931482007422E+00 -1.408219300817E+01 1.141889047693E+00 1.096384543828E+00 5.112110925855E-01 6.324420536421E-01 -2.158011593067E+00 -6.111979292546E-03 1.455990148232E+00 4.312558794767E+00 -5.295095052098E-01 -1.338656199306E+01 -2.094670816383E+00 3.962769367941E+01
 -1.251658849501E+00 -8.076763711329E-01 5.163593149616E-01 1.781842851001E-01 -1.072311150683E+00 -2.232917205558E-01 -5.000632194154E-02 -4.235829878544E-01 1.130921578982E+00 -6.548312188863E+00 2.554065119618E+00 -7.777266653438E+00 -2.307020025591E+00 -6.005288666628E-01 6.237724157118E+00 -4.749022353818E+00 2.114357122365E+00 9.338972905649E-01 -3.462849470564E-01 -2.213274918326E-01 4.619840516905E-01 1.405143821814E-01 3.002534666789E-01 5.131549292126E-02 -6.802597050365E-01 7.594612399963E-01 7.446180428681E-02 1.738512802838E+00 -1.075762240091E+00 -1.720438485762E+00 5.771824751339E-01 3.698548152919E-01 -5.056357691891E-01 2.343518187029E+01
 -7.555726882200E-01 -3.120054263007E-01 7.324855478795E-01 -2.690611006207E-01 7.447884712272E-01 2.603978069469E-01 4.005871399902E-01 9.882207591035E-01 3.391822988527E-01 1.773102865553E+00 -1.028455578416E-01 3.054290800954E+00 -3.314505484867E-01 3.169799479432E-01 1.991562209859E+00 4.021339252325E+00 -2.586384452314E+00 -2.108374889300E-01 1.629487412992E-01 -3.721953418729E-01 -9.383263936661E-01 -1.077294916328E+00 -4.604814384140E-01 1.028920696280E+00 5.260429181262E-01 -4.012750574651E-02 -6.748558688373E-01 -2.494651602010E+00 -6.524778378387E+00 -6.962050904286E+00 1.712486803893E+00 -6.589336033668E-01 7.965849962963E-01 -9.008902922554E-01 2.760209873667E+01
 -1.875415506035E+00 2.921417751902E-01 -1.456277759130E-01 7.856783592383E-01 3.676456728509E-01 -7.425840927320E-02 -8.979032182721E-01 -3.010375485396E-01 -1.751414634262E+00 -5.553009246878E+00 2.567803483104E+00 -7.250938520428E+00 3.746085995943E+00 1.061198041964E-01 -8.181308473027E+00 4.177733419298E-01 1.311759025864E+00 -4.208846038184E-01 9.543612305241E-01 1.496158033509E+00 1.049389376442E+00 -1.452819138827E+00 -6.950017337442E-01 1.597297648755E+00 -1.327599602607E+00 -3.822247021939E-02 -4.513018513218E-01 4.552326890826E-01 -7.539715358018E+00 -5.737840861155E+00 1.205064905631E+00 -4.818310979332E-01 -1.155418056045E+00 1.853738020108E+00 -6.898516900932E+00 3.526357419635E+01
 5.830669174179E-01 1.342362123023E+00 -1.517309004821E+00 -5.287181800615E+00 -3.765853986023E+00 -1.272435527828E+00 5.114098351573E-01 -6.192036143095E-01 -4.723665389692E+00 -4.359533459449E-01 -1.311617724686E+00 6.256183013789E-01 -1.158781168705E+00 6.160971055692E-01 -2.364128856483E-01 7.585963884653E-01 -6.062975453892E-01 -1.547112958029E+00 8.747612720563E-01 -3.741992676129E-01 -1.776124981365E-01 -1.130265134791E+00 -1.181915258231E-01 1.283905712762E+00 4.541667847343E-03 -2.394454954046E-01 6.022221337373E-02 -7.310702591265E+00 1.326569132193E-01 4.364582975217E+00 -1.633324114557E+00 2.002070739952E+00 2.349264341254E+00 -4.716416290808E+00 -2.139898832741E+00 1.793317352554E-01 2.985221674184E+01
 2.390854901695E+00 8.834843792997E-01 1.215914560809E+00 -2.729945109765E+00 -3.523093670222E+00 -2.581043002506E-01 1.490207383084E-01 1.186918512239E+00 -2.623221587899E+00 -9.772104377748E-01 -3.969000311975E+00 4.039499161189E+00 -1.153096096313E+00 -2.813734316277E-02 -1.230954245314E-01 5.021657019207E-01 -7.802434244612E-01 -4.823720825849E-01 1.445321467587E+00 4.531955837764E-01 -4.466865081159E-01 2.266289627075E-01 9.092818418588E-02 8.707279098192E-01 -7.635904402071E-01 -4.421569489338E-01 -4.542092880007E-03 -1.260124369473E+00 -4.390930149597E-01 -3.466337256159E-01 1.934501059794E-01 -1.018917230405E+01 -3.591664598868E+00 -2.731818765080E+00 -2.149433856288E+00 -7.910525175403E-01 7.115552075730E-01 2.437980311841E+01
 -1.085630085309E+00 7.316507396856E-01 -8.309465964492E-01 -7.055902181284E-01 -4.066257579439E-02 -1.094051630353E-01 -4.521006430494E+00 -3.743020777534E+00 -1.201981527503E+01 1.379239854972E+00 1.762937175059E+00 -3.662832689372E+00 -3.022187576109E-01 5.142526417186E-01 -2.907064607421E-01 -5.537059549760E-01 -3.811346347319E-01 1.070140644586E-01 9.991947350541E-01 -5.090315875232E-01 -3.221316378208E-01 -7.307556638098E-02 -8.879646131931E-01 -1.001934606284E+00 8.523279693437E-01 4.648970444016E-01 -2.217542589735E-01 6.406411196946E+00 1.196113227918E+00 -3.132459195116E+00 3.974667603583E-01 -2.397470013297E+00 -2.912292896612E+00 -2.605588899185E-01 -1.702286913606E-01 5.717551468877E-01 5.635954097904E+00 -2.116453493064E-02 3.201961243962E+01
 -1.979025081525E+00 -4.811048736130E-01 -8.995991962465E+00 -1.628184785406E+00 3.041260813990E-01 -6.571665657857E-03 5.568455339400E-01 -3.189161484900E-02 -4.703150919448E-01 1.939436324303E-01 2.973695433283E-01 3.388006461111E-01 -1.996338308513E-02 9.594309443574E-01 -2.661879606090E-01 -7.374250708194E-01 -8.712992278893E-02 1.371460120799E-01 -1.431395330542E-01 -3.641983361975E-01 -6.013800977832E-01 6.854594406804E-01 -1.477728976985E+00 1.573589667983E+00 -3.899948013248E+00 8.495192385837E-02 4.390193141498E+00 -4.462964852240E-01 -8.878567114883E-01 7.211933071829E-01 3.854987398376E-01 8.805647988765E-01 8.991003563522E-01 4.800393225046E-02 -5.912150974275E-01 1.080182180764E+00 -1.006024425572E-01 2.080827841795E-01 -2.285926779094E-01 1.938252419980E+01
 1.457665650802E+00 -6.126124558842E-01 -8.559324779123E-01 1.660995185761E+00 3.026756465137E-01 -9.571623104694E-01 -3.974002240579E-02 -3.744427683058E-01 1.043954576404E+00 -6.963146934423E-02 -2.445143456445E-01 -5.685662661416E-01 2.486909075014E-01 2.026035633888E-01 3.429626887682E-01 -1.237015785348E-02 -5.088081435815E+00 4.756797742813E+00 -7.487705581545E-01 8.052709300085E-01 -8.818186329872E-01 1.125769980613E+00 -3.726608333657E-01 -7.469261039127E-01 -2.094487779044E+00 4.940722616694E-01 1.131626989797E+00 -4.501558110503E-01 5.662167277038E-01 -1.801365233795E+00 -1.404313508856E+00 -1.445991275962E+00 6.742072677717E-02 1.141612773164E+00 2.378676432651E-01 -8.979120899161E-02 -1.911672457355E+00 -7.173714924145E-02 -3.823788827709E-01 -4.734596061471E+00 1.572842454544E+01
 -3.991959922531E+00 -2.079109426474E+00 -1.186233365367E+01 1.536682826973E+00 1.589582821897E-01 -1.641134011537E-01 9.305630702645E-01 1.201941060570E-01 -6.412875898646E-01 -5.904785396528E-02 8.644989299643E-01 -1.181675241816E+00 -4.491696547377E-01 -3.575791493151E-01 -4.789179583185E-01 9.596078001817E-01 3.312116112485E+00 -5.203545883486E+00 -1.000061589195E+00 7.195611174548E-01 -1.104844143452E+00 2.814786055586E-01 5.505733960788E-01 5.818372355473E-01 1.457171006179E+00 1.051968901415E+00 -7.443764178831E+00 -1.471266303771E-01 4.626900514888E-01 -1.656903296753E-01 2.395675939559E-01 -2.513151773151E-01 6.902968100084E-01 -1.118037708471E+00 3.681900740195E-02 2.185604257352E-01 -6.197936122737E-01 2.637019945950E-01 1.303686302226E+00 -1.347276105237E+00 -2.108859298712E+00 3.212629635594E+01
 7.173636715529E-01 1.050126531102E+00 7.969165902364E-01 -9.917201054854E-01 1.049147056222E-01 -1.141500792182E+00 -9.007408080312E-01 -6.723150228493E-01 -3.452184570672E-01 -1.029426341675E+00 2.247210215755E-01 -8.625134445778E-01 2.822598641220E-01 -5.809999159782E-01 7.382630351923E-01 5.298212743577E-01 -9.619283726288E-02 1.084466953200E+00 -1.384686507001E-01 4.408237085086E-03 -2.951632062326E-01 2.742075310883E-01 7.392635650835E-01 -7.118192912064E-03 1.027837202040E+00 -5.890602085341E-01 1.721471525094E-01 1.214087351328E-01 9.557903364846E-01 7.939665255238E-01 -3.294248016380E-01 -1.922924446949E+00 1.088844196310E+00 -3.200621040211E+00 1.425973917616E+00 -2.218683962390E+00 9.594185946581E-01 -1.580328141660E-01 5.388990260182E-01 -1.085110303396E+00 1.900640500922E+00 -8.473816372958E-01 2.721349493005E+01
 -2.753933827181E-01 -7.311488498138E-01 2.457500355596E-01 1.691869193383E-01 2.752293062667E-01 9.920733045884E-02 -7.238208529399E-01 3.928311002188E-01 5.813944905539E-01 1.130118593104E+00 -2.123125335033E-01 7.364080501378E-01 -1.446770504771E+00 -1.134093745763E+00 3.613051682975E-01 7.619369582952E-01 -9.924257441977E-02 -2.570001634694E+00 2.819002800555E-01 -7.569661084961E-01 -2.149988085606E-01 -5.564020370972E-01 5.613805539709E-01 2.847947538159E-01 1.304707867563E+00 -7.524094352793E-01 4.350812061629E-01 1.709576339999E-01 1.728117159135E+00 1.266487940079E+00 -4.989853427194E-01 -8.953946071739E-01 -5.830012554175E-02 1.252020017607E+00 -1.848689743144E+00 2.230771975558E+00 1.826987509097E+00 -1.055699132852E-01 -2.319712584155E-01 -6.556817101386E-01 -6.740392829146E+00 -1.953689505179E+00 4.288880635900E+00 1.873744210784E+01
 2.550158085431E-01 8.206923341554E-01 -6.674405115042E-01 -1.222834770325E+00 2.946494039759E-01 3.874370414216E-01 4.242392608196E-01 -1.289838627135E+00 -1.034127901966E+00 -7.473754784554E-01 8.968304004884E-01 -1.109217156987E+00 4.067622115737E-01 -4.414728645616E-01 1.258135196203E+00 5.879302856170E-01 -1.840489796982E+00 -9.705519702544E+00 -1.090148936741E+00 -6.110279704088E-01 -9.663266879037E-01 -5.328299789880E-01 -4.292985898935E-01 2.121026755096E-01 1.055754202504E+00 5.291554952386E-02 -8.722501972174E-01 1.804559593623E+00 1.002986828476E+00 8.664356214158E-01 -4.557468141761E-01 6.189082021415E-02 -4.135825606071E-01 -3.768529659359E+00 1.049727068176E+00 -4.812029638395E+00 1.399430722587E+00 -2.618530596142E-01 5.881800117299E-01 2.916453414031E-01 -1.963845235793E+00 -1.020280154362E+00 4.054401920208E+00 3.026252310864E+00 2.392200721157E+01
 -1.273557049526E+00 -1.460465524518E+00 4.528732275656E-01 7.609826420098E-01 -5.184215653141E-01 1.159074768157E+00 -3.306263662574E-01 -5.591538755061E-01 -1.219836337490E+00 1.049035451150E+00 -6.550326646920E-01 4.316260723336E-01 -3.172511988939E-01 -8.607866366665E-02 2.646530601989E-01 -3.002894035196E-02 1.930287245436E+00 1.294168487231E+00 -9.866421851710E-01 2.188628828893E-01 7.485448481569E-01 5.989698742085E-01 2.413093753786E-01 -5.696083320385E-01 -9.579703143679E-01 -4.075061624493E-01 1.397739553025E+00 -5.333456232427E-01 2.583678703306E-01 1.179441765540E-01 -5.738779053242E-01 1.564519030166E+00 -2.104898324958E+00 -2.768279614362E+00 -1.106002565221E+00 2.859589997411E+00 -2.936705611441E+00 7.383708625712E-02 -5.869872184912E+00 1.219638177525E+00 1.444321304761E+00 1.077451238089E+00 -1.030265559138E+01 -7.703416326787E-01 1.524045196107E+00 2.237111767924E+01
 8.205072640776E-01 -9.744880936252E-01 -5.773377818093E-01 -4.828844496925E-01 -8.507822579787E-01 4.596792910256E-01 -4.868115829824E-02 -9.264328129074E-01 8.003096183965E-01 1.035159590525E+00 1.194689211256E-01 -4.900691592514E-01 5.152845362841E-02 3.483005094663E-01 1.007876135822E-01 -7.551886083279E-01 9.488997056661E-02 -6.081647461271E-01 1.322571256760E-01 -1.332170464150E+00 2.827537497694E-01 3.745078515912E-02 4.583708014084E-01 1.089979907833E-01 -6.311251527255E-01 -8.682618131949E-01 1.182558448121E+00 9.503956983325E-01 1.312260073464E+00 7.492790542130E-01 -7.772191558045E-01 1.537762699534E+00 -1.802398143412E+00 -2.093882558078E+00 -1.732226673072E+00 3.106367707274E+00 -1.273124404774E+00 -2.483831243190E-01 -1.397757852306E+00 6.491627089387E-01 -7.603375229955E-02 -9.751543546263E-01 9.417272218028E-01 1.806029184062E-01 2.555718978910E-01 -4.721325052580E+00 1.943368210852E+01
 2.084490481005E+00 3.975298108654E-01 1.172167782543E+00 -1.354152386148E-01 -6.779081778107E-02 -5.669418476176E-01 1.566031685813E+00 1.029577482005E+00 -6.473056640333E-01 -1.111982139372E+00 1.021702533978E+00 9.238940676717E-01 -1.648626456585E-01 -7.723259468731E-01 1.177630569594E+00 2.455835281581E-01 -1.177958418828E+00 -1.960771583445E+00 4.536460609770E-01 -4.811533959553E-01 -1.891618267549E+00 -6.671894001311E-01 5.371317714797E-01 4.452110578508E-01 -4.062227856476E-02 3.469723554979E-01 -1.075127760587E-01 -1.018425123842E+00 -1.013079357572E-01 -4.350775430355E-01 -4.295114219477E-01 -1.769335757950E+00 1.806565903728E+00 4.507592763096E+00 1.868821172359E+00 -7.649591514695E+00 -3.419311710250E+00 -1.630035262077E+00 -6.187334631166E+00 -1.994720495179E+00 -1.028410869701E-01 -1.358981857666E+00 8.064242560035E-02 1.295023373595E+00 -9.807935233783E-01 -3.051190653476E+00 5.327114180068E+00 2.449645617906E+01
 5.890341511487E-01 2.729934594520E-01 -5.873802683316E-01 -3.404127526535E+00 7.138849567797E-02 -4.461916414049E+00 5.513828593228E-01 1.378065394230E-01 1.190996602048E-02 1.171551634522E+00 -7.945953081473E-01 2.124207933671E-01 -1.672860599752E+00 6.052331730154E-01 -7.621340464202E-01 -4.923817198526E-01 9.836672693940E-02 8.236359284545E-01 -5.932081705866E-01 2.810110222735E-01 6.442524912034E-01 5.343219351222E-01 -6.738128150621E-01 -8.703428838489E-01 -8.186654396275E-01 -1.095399642599E-01 6.208345526246E-02 3.619495094802E-01 1.137474474783E-01 -6.395349399126E-01 -1.013412118596E+00 1.014039830071E+00 4.608584645618E+00 -2.652686347072E-01 1.145254241147E-01 6.624030413602E-01 2.168913904048E-01 1.432070442040E+00 -8.083668586001E-01 1.701024749446E+00 -9.992964358296E-01 9.408724489029E-01 -1.873016611220E-01 7.961464216166E-01 1.238228363995E-01 -1.353889344125E+00 -1.277087319400E+00 8.358836677954E-02 1.797844891029E+01
 6.727983981517E-01 5.112923733857E-01 -2.696213259828E-01 1.484712831765E+00 -1.238526724756E+00 2.742028237633E-01 -3.085462151351E-01 -3.603849466284E-01 1.036785301553E+00 -1.148079403237E+00 -4.026356576927E-01 -1.184883974275E-01 1.736426890199E-01 -1.135518890319E-01 1.078364226016E-01 -8.722216186385E-01 -1.401310874646E+00 -1.929551530176E-01 6.106703526339E-01 1.233055565826E-01 -6.217390975029E-01 -6.122546220883E-01 -1.283013914274E+00 -2.229800593072E-01 6.554951850891E-01 5.261055621007E-01 -1.222437498813E+00 1.030435105808E+00 8.271952397950E-01 6.554523441743E-01 8.509114857560E-02 4.903963707302E-01 -2.999577709849E+00 5.615452026982E-02 -8.112003238354E-01 6.184267264580E-01 7.901190853650E-01 -3.910202655990E+00 4.134998638964E+00 -3.690135020239E-01 -6.713971833805E-01 1.377107405337E+00 -1.579554803631E-02 1.441291603300E-01 4.580912357583E-01 -3.387665974831E+00 -4.269266250357E+00 -9.653218943433E-01 5.510224104450E+00 1.511611814772E+01
 7.732214076991E-02 -7.746661599830E-02 3.135346021189E-01 -2.567880568401E+00 6.656374771551E-01 -6.898314166437E+00 -3.837777381671E-01 -1.962096917742E-01 -1.582152336216E+00 -1.693616334358E-01 5.241047894349E-01 4.114237570274E-01 -1.573061162926E-01 3.252304207437E-01 -1.061066389318E+00 3.613457716519E-01 3.962052125367E-01 5.886108186972E-01 1.258799217102E-01 -1.543307861904E-01 4.644825651833E-01 -1.848399580111E-01 -9.655821698985E-01 -1.756282709563E-01 -1.386405592357E+00 1.033267014532E+00 4.998086799938E-01 6.201311352947E-01 -5.833329345082E-01 5.898192573365E-01 2.391322389822E+00 2.790131236637E-02 -1.636366104214E+01 1.588616401945E-01 -1.654161980821E+00 9.193096994633E-01 -4.542519870232E-01 2.427787499580E+00 -1.536826709760E+00 -4.845254326282E-01 1.111982377914E+00 1.931285502521E-02 -7.390555318970E-01 -8.689218867122E-01 -7.151364041712E-01 -8.137769641651E-01 -5.894710951599E-01 -1.465053601495E+00 2.370460002817E+00 -1.800746238369E+00 3.179546813593E+01
 7.346911374609E-01 -1.433562417485E-01 -1.047004401304E+00 -1.024467236419E-01 1.655969553311E-01 -1.148357416826E+00 4.781200373243E-01 1.101360159748E+00 -8.067590768740E-01 -1.466087956389E+00 9.167952349413E-01 -3.158270665557E-01 3.397668226931E-01 -3.048965952924E-01 1.092135337126E-02 2.625175320196E-02 -1.065215499567E+00 -4.870001705937E-01 -1.739390261742E-01 -3.684216889147E-02 -1.194537207110E-01 -1.499199884102E-01 2.068177144051E-01 1.273869130619E+00 -1.217303237364E+00 -1.060035393431E-01 1.398777686786E-01 7.537433523151E-01 -5.624861703427E-01 -1.012516986799E+00 8.260178988008E-01 -9.381654042972E-01 3.289261550208E-01 -6.288569940118E-01 1.297073869818E-01 -4.824351775235E-02 -1.287746547391E+00 9.068175689706E-01 8.010686545643E-02 -3.596791009465E+00 5.110991812425E-01 5.460738054738E+00 -2.688769128751E+00 -3.316074278314E+00 4.018823381523E+00 -9.110202630803E-01 3.164139651278E+00 -2.227428843814E+00 -5.393473458938E+00 -1.027668570722E-01 -3.230472809839E+00 1.841944309581E+01
 -6.826462412026E-01 9.027052798865E-01 1.679013305631E-01 -3.438254029753E-01 3.136527875406E-01 5.708361230704E-02 9.076797558339E-01 3.389697560192E-01 -1.842916858569E+00 -1.444242729755E+00 9.206061743381E-01 4.681925873040E-01 6.574639405344E-01 -3.874986379451E-01 6.330621691032E-01 4.031034902130E-01 8.335309248399E-01 5.500347079547E-01 -1.621878868549E-02 2.913365777931E-01 -1.303795233025E+00 -1.045686638293E+00 -3.045663452296E-01 3.314674324964E-01 1.216510319910E-01 -5.679532525306E-02 -3.066108401556E-01 6.777275534966E-01 -2.480447898543E+00 -7.963565871084E-01 7.542637352820E-01 -9.067009981872E-01 1.881523420070E+00 7.819356389562E-01 -9.115767524410E-01 -1.414754541673E-01 -2.970752506313E-01 5.018996528187E-01 3.852791218725E-01 1.631195823030E+00 -3.957776140419E-02 -3.575584831663E+00 -3.203320186233E+00 -5.161014794532E+00 3.485346008805E+00 4.297495711847E+00 -6.869329465183E+00 2.724713593862E+00 -1.109415684339E+00 -9.110309579330E-01 -2.385996675000E+00 -3.329007837454E-01 1.654195126273E+01
 -2.637026284488E+00 -1.167970841134E+00 9.266493499319E-01 -1.168516322397E+00 -4.191093430154E-01 1.113318589773E+00 4.190610173382E-01 -1.329382992735E+00 7.934643677960E-01 1.260371485205E+00 -4.608982318886E-01 -3.964853817209E-01 -6.436472985988E-01 -7.542707344108E-02 2.554816791509E-01 -5.608429290618E-01 4.181762272081E-01 -3.748182870948E-01 -4.232758967128E-01 7.289827628846E-01 1.522729705471E+00 -4.473557875294E-01 1.525987347361E+00 -3.229856588348E-01 2.320373045107E+00 -1.408530527480E-01 -7.519222971342E-02 -5.893041962910E-01 -1.471485758009E+00 3.869649980161E-01 5.399048162718E-01 2.541249113098E+00 -1.588170365080E+00 1.307674560591E+00 8.439275940605E-01 5.618352817815E-03 -5.506600730905E-02 -1.047074391606E+00 -1.750489060206E+00 3.074094567392E+00 1.584109385801E-01 -4.925106075959E+00 2.020119654782E+00 8.206816259548E-01 -9.434545433383E-01 -1.954927887520E+00 -6.196672333698E-01 1.373578367179E+00 -4.661381866271E+00 2.200332228407E-01 -3.657467455151E+00 -5.238537379140E-01 -5.425169468483E+00 2.369758001306E+01