#BIOSYM hessian 1
@Type: Hessian Update
@Units
 distance: 	A
 energy: 	Kcal/Mol
#header
@natom 19

#label
L1      L2      L3      L4      L5      L6      L7      L8      L9      L10     L11     L12     L13     L14     L15     L16     L17     L18     L19

#element
Li Li Li Li Li Li Li Li Li Li Li Li Li Li Li Li Li Li Li

#matrix
57
 3.271324181466E+01
 6.676147311650E-01 2.910114991689E+01
 -7.677366906910E+00 -1.909355561798E+00 3.286409394134E+01
 6.405407883681E-01 -5.189403338977E-01 1.247389595246E+00 6.783846064738E+01
 -2.822771500895E+00 3.028626379986E+00 1.738102862719E+00 3.190682937142E-01 5.176692438448E+01
 -3.025730565014E-01 1.663364920227E+00 1.962242848482E+00 3.701101932086E+00 -9.644734195663E-01 6.837777623395E+01
 -1.815726498486E+00 6.908991480960E-01 8.779564410299E-01 4.099351376657E+00 1.393666916319E-01 6.180404540220E-01 3.699180847431E+01
 1.134921164292E-01 -5.880320446827E-01 -9.953997671363E-01 -2.687122663319E+00 1.608396086653E+00 -2.897495109977E+00 3.495697548264E+00 3.119977416408E+01
 9.356868236641E-01 -1.039777312571E+00 1.281722238473E+00 1.890519117694E+00 -1.400428194708E-01 2.540547843552E+00 -4.398822086988E+00 7.637961344254E-01 2.892412195841E+01
 -1.291986099168E-01 -6.362371848597E-01 2.485157499428E-01 2.873606664086E-01 1.780564456125E+00 2.819769526165E+00 -5.387650953949E-01 -2.656342506730E-01 1.761324481007E-01 1.363235543067E+01
 4.164265268796E-01 1.021076296423E-01 5.135086394898E-01 4.456731474293E+00 -9.454354705610E+00 -1.211848469349E+01 1.111541751405E+00 1.032437351614E+00 4.399192883394E-01 -6.862403541911E+00 2.186023511568E+01
 1.647383823892E+00 7.493771745399E-01 7.703317969548E-01 3.342557908847E+00 -1.435669760180E+01 -1.934708545545E+01 2.229646631940E-01 1.306019816823E+00 -9.678371739185E-02 -1.670480815200E+00 1.011992294837E+01 3.141444558081E+01
 -1.410600372704E+00 1.314786873885E-01 6.887877298161E-01 -3.545025923246E+00 6.231028979277E-01 1.135277895805E+00 -1.127272909703E+00 -2.433463261455E-01 1.860657350973E-02 -9.390903091405E-01 9.072921772740E-01 -1.191613584650E+00 1.166904663666E+01
 1.834502217734E-01 4.478543390640E-01 -1.444557731908E-01 -3.972122514174E+00 -1.261545803891E+01 1.255057984519E+01 1.073981288034E+00 2.350003965627E-01 -2.777665895638E-01 -8.580114085827E-02 -6.229561222373E+00 -2.896643804954E-01 5.572289872069E+00 2.463897216222E+01
 1.059027643945E+00 7.007474220307E-01 -3.388333802611E-01 6.298697927026E-01 1.379976777927E+01 -1.532274586066E+01 -1.305719817618E+00 -6.828607841563E-01 1.216369874879E+00 5.464019031320E-01 -1.711580326870E+00 -8.179605176828E-02 -1.371501215290E-01 -1.209705658944E+01 2.687566331467E+01
 -5.819997328306E+00 -2.102389367205E+00 7.727620835018E+00 -3.864872930730E+00 -3.824810430520E+00 -2.278018438435E+00 -1.237145588510E+00 -5.451228331355E-01 -8.951385492511E-01 -2.137180619735E-01 7.597601674264E-01 3.872647257455E-01 -1.266118227836E+00 -8.003780554979E-01 -2.546936119254E+00 2.650508645409E+01
 -2.329452533133E+00 5.680221184668E-01 2.112773524325E+00 -8.340008513315E+00 -8.042736807275E+00 -3.611439885690E+00 -1.654921415662E+00 1.984506811851E+00 -3.628331789464E-01 -1.647362878204E-03 -1.448459445622E+00 -1.635818694080E-01 -5.019264104180E-02 -4.295240106283E-01 -1.030882260760E+00 -1.356665928642E+00 3.305174758957E+01
 8.314041102919E+00 3.270127913765E-01 -1.933968129161E+01 -1.488740376032E+00 -3.295249989439E+00 1.053580307953E+00 4.733109075645E-01 5.194550633774E-01 -3.124231301506E+00 -7.403448320066E-01 -1.644007542337E+00 -1.506916680333E+00 -4.038646335633E+00 -1.931415135515E+00 -7.957772211363E+00 -4.358441226843E+00 3.044032193467E+00 3.934071808320E+01
 6.263751035238E-01 4.163837327275E+00 3.613931923613E+00 -2.891492400971E+00 6.476725937818E+00 -1.188352931556E+01 -2.593586002940E-01 -7.961923411766E+00 1.797949750277E+00 8.894521112714E-01 1.314885473018E+00 -2.687256992238E+00 -3.282727790377E-01 -3.071508091288E+00 -7.669655440174E-02 -1.373134458911E+00 -1.056051075199E+00 5.019985020652E-01 7.513559617791E+01
 -5.542407100300E-01 -4.097925834408E+00 -8.193416846684E+00 -4.727994813239E+00 -4.899823891950E+00 1.616385425165E+00 -6.574941955192E+00 -8.023880917142E+00 -1.026556581439E-01 1.305745718808E+00 -3.809460363887E+00 -5.555196147890E-01 -8.341436617030E-01 1.209132378089E+00 2.642768264619E-01 -8.644304508197E-01 -5.962095053979E+00 9.322351911969E+00 -1.522770300565E+01 1.161005183801E+02
 5.213486530610E-01 -2.809072890596E+00 -4.208641581279E+00 -1.498606991139E+01 4.802028842843E+00 -1.723871887823E+01 -2.134492904354E+00 2.672824413487E+00 -2.526996136030E+00 -3.221079832749E-01 -1.394004756949E+00 -1.982895595351E-01 1.587412428470E-01 -8.802852635816E-01 6.336271671700E-01 -6.889833942839E-02 6.045748963883E+00 -9.276424973742E-01 8.511000810697E+00 3.166373390389E+00 6.166874176741E+01
 -3.581003795103E+00 -2.301115818959E-01 2.372767145988E+00 -5.018458927851E+00 7.636832128665E+00 -5.914672658953E-01 -4.475150377620E+00 -3.886078268455E-02 6.326250312236E+00 -2.873879757811E+00 1.150147788446E+00 -3.556921042675E+00 4.750927067044E-01 -3.013989723324E-01 1.480687078987E+00 1.204760051765E+00 3.718894313204E-01 -3.217755491010E+00 -9.501179997038E-01 3.270071309508E+00 3.128249043397E+00 2.763930124420E+01
 1.275080366401E+00 -1.075153391219E+00 1.106009638362E+00 8.931645018927E+00 -8.957170838437E+00 4.925226429686E-01 -5.990822559634E-02 -2.092153970605E+00 2.698860067058E+00 1.161221613151E+00 -9.930833334638E-01 3.833952506982E+00 -4.600979834674E-01 -9.878864918231E-01 3.479431793808E-01 -8.529918779565E-01 -2.360555262247E+00 -5.956829023823E-01 -3.241609946286E-02 -9.906937829959E+00 -8.939016458490E+00 -7.014666980137E-01 3.150799822289E+01
 -1.527306310127E+00 1.217919148483E+00 -2.845717793362E+00 -5.725258658860E-02 -7.636739093386E-01 -2.056057285455E-02 1.057029836421E+01 2.070492144615E+00 -1.666253608337E+01 -4.853982734058E+00 5.570664953715E+00 -6.083094154047E+00 -7.054949340968E-01 1.565104679136E+00 -2.109627921961E+00 -4.656666999486E-02 -9.066013207485E-01 2.899112910296E+00 -6.503024628462E-02 -9.606486705867E-01 -4.458271291218E+00 -2.772728863227E+00 -2.862684663293E+00 3.775594747729E+01
 6.432197879054E-01 -2.863820581487E-02 -2.307409955634E+00 -2.363711484370E+01 -2.514156940913E+00 -9.348673869331E+00 -2.584614296342E+00 6.029627939088E-01 -1.535521957824E+00 -6.289911881947E+00 1.937422402465E+00 3.146360882802E+00 -3.636807885730E+00 -1.656739981425E+00 8.458470731492E-01 1.629520693993E+00 1.787765473394E+00 4.677529842646E-01 -2.846780207282E+00 4.262224149958E-01 2.270564300248E-01 -3.696063410934E-02 -2.534599971323E-01 1.296657602739E+00 3.830976014790E+01
 -4.980480532196E-01 1.185454381340E-01 -1.554855605818E+00 3.100397345956E-01 1.501082743134E+00 8.510770570214E-01 6.445853222058E-01 -8.524382699318E-02 1.166861875350E-01 3.630577486617E+00 -3.247941344930E+00 -1.302432636923E-01 -4.023643770464E+00 -1.884064052195E+00 5.201989649637E-01 -8.893996639298E-01 -3.743040770751E-01 4.555363375589E-02 -2.530708087368E-01 1.084472102523E+00 -1.037264904964E+00 -1.395202928810E+00 -1.191810468845E+00 1.539209061544E-01 -4.864372339981E-01 1.381326911587E+01
 -6.965621951851E-01 8.391181117762E-01 -1.499463976016E+00 -1.183240344625E+01 -1.252742105167E+00 -2.887692771599E+00 -2.655116476466E+00 4.801214961187E-01 -3.958556152881E-01 3.727633938925E+00 -2.827530208213E+00 3.619572596533E-01 1.899270113532E+00 2.949868580716E+00 7.890319230852E-01 -1.642682958003E-01 1.334497690113E+00 -6.265004190660E-01 -3.949274978274E+00 6.500725811644E+00 1.956346847200E+00 -8.774854565105E-02 -1.149873475461E+00 -2.037771152098E+00 3.833145899188E+00 -4.100424166720E-01 2.142687086707E+01
 -3.850634227444E+00 1.315249430569E+00 -4.515413772983E+00 -8.040773755283E+00 3.414072319603E+00 3.941951383177E+00 -9.873582545792E-01 4.120426518365E-01 -1.646280623118E+00 -7.430999214916E-01 8.091590125927E-01 4.967953612240E-01 -9.772793148754E-01 4.619821857139E-01 -1.545094411925E+00 -7.299144210881E+00 1.174829183530E-01 1.223934705724E+00 1.651951452704E-01 6.157855054517E-01 2.733236368013E+00 -7.159286875156E-01 5.740359242104E-02 1.084810896067E+00 1.089505683153E+00 -1.379132600024E-01 7.027644319976E-01 2.693037923552E+01
 3.799728307711E-01 -3.054708707454E+00 -7.887419188341E-01 6.430759170882E+00 -6.042829166203E+00 -5.162435748675E+00 -1.208846319397E+00 -2.592994812994E-01 -7.526970506919E-01 8.161642371861E-01 -1.519765465520E-01 8.581055224335E-01 -2.261983759882E+00 -1.252414581094E+00 2.532843562374E-01 -1.404915314766E-01 -2.778635078180E+00 -4.309918248501E-01 -2.371453322387E+00 2.378094855390E+00 1.969537308393E+00 1.459953366086E-01 -3.499524053627E-01 5.694549020328E-01 3.238587175105E-01 -2.986284727894E+00 -2.406380211830E+00 -2.313299630380E+00 2.704183970637E+01
 -3.797402130247E+00 -3.560989969415E-01 -6.527669290514E+00 3.245433799022E+00 -1.702745433785E+00 -1.698174691362E+00 1.398672165627E-01 -2.136101016186E-01 -1.896215094168E-01 1.201556039514E-01 7.662512879771E-02 -5.792913388975E-01 9.147998592320E-01 -7.783957372972E-01 -1.452804033568E+00 9.016865427825E-01 -5.973601267675E-01 3.861337278547E-01 2.954127157160E+00 -2.661543722758E+00 -1.661646711525E+00 1.092875217055E-01 9.098556311121E-01 5.348709404810E-01 -7.124148872515E-01 -3.153654564825E+00 -4.668534740086E+00 6.522035330997E-01 -2.003060293332E-01 2.113288072586E+01
 -5.721733491685E+00 -6.501311735102E+00 -3.968094267806E+00 -1.142555964013E+01 -3.133611790390E+00 9.592575919562E+00 -6.757659253365E+00 8.390872984713E+00 -2.523247328161E+00 -3.514661461286E-01 -4.350809281023E-01 -1.338997244723E-01 1.870699258369E+00 1.598899523134E+00 -2.484563273750E-01 1.448803752869E+00 7.593715157451E-01 -1.041996676988E+00 -2.722614426403E+01 1.066676631570E+01 4.180086357347E+00 7.374434387609E-01 -1.874337698767E+00 -6.815310322339E-01 4.670212911063E+00 -5.882469337431E-01 3.511776155965E+00 6.812580659441E-01 1.176954497077E+00 -1.916731758945E+00 8.057008285844E+01
 -5.183720471743E+00 -9.403167217001E+00 -3.168473005661E+00 -7.945599633575E-01 -3.080579756706E+00 4.538976247449E+00 5.273735012854E+00 -7.145695076725E+00 1.043174509166E+00 -1.270604717002E-02 -5.542714941741E-01 -2.012600840003E+00 4.677477155608E-01 4.161128656880E-01 -3.244933596732E-01 -9.864285525168E-01 8.053899748756E-01 1.773312324165E+00 -2.906914911860E+00 8.733936813724E+00 -1.038928565254E+00 -1.394365276785E+00 1.546547726905E+00 1.641773802597E+00 -7.161832618052E-02 1.102780278477E+00 -1.978826994177E+00 2.439664040782E+00 -8.824919263694E+00 3.817088945251E+00 4.339528912127E+00 5.045728700036E+01
 -2.851340201510E+00 -3.116031739750E+00 -1.446045892361E+00 6.015404647309E+00 2.191493162729E+00 -1.459478281474E+01 -5.383365449364E-01 1.312076562121E-01 -1.685961008194E+00 1.099064715554E+00 1.598990920207E-01 -2.749371552511E+00 4.759934380708E-01 -8.198609161595E-01 -1.232917003858E+00 1.200367876218E+00 -4.391492952369E-02 1.156505756263E-01 -4.397125916741E-01 4.222059364227E+00 4.268204847157E+00 -7.707092281629E-01 4.059290070771E-01 8.257301003060E-01 2.760187299325E+00 8.965137784439E-01 2.602045985291E+00 -2.804827326484E+00 7.236217925978E+00 -3.245557841107E+00 -7.923968586253E+00 1.327145976187E+00 5.821397232426E+01
 1.505643297892E+00 7.163276414117E-01 -2.514944954759E+00 -4.503879314997E+00 -5.905996677013E+00 1.987604884952E+00 -5.134820163330E+00 5.027869820840E-01 -3.211072402207E+00 -2.310232250854E+00 -1.552748297226E+00 -7.431244767256E-01 -5.773555029138E-01 -2.180007267438E-01 -2.632610929759E-01 -2.043185647137E+00 1.035314436180E+00 2.005327789624E+00 -4.422475774270E-02 4.245505356652E+00 4.180068757187E-01 -1.090015530867E+01 -9.811851164800E-01 -4.013001672768E-01 7.754469601483E-03 2.080320769806E+00 -1.113885245128E+00 2.565523409553E+00 2.377742772711E-01 4.141397315135E-01 -3.115823652622E-03 -1.627620078605E+00 -1.994543617769E+00 2.760023362638E+01
 -7.526576042747E-02 -1.039773149025E+00 2.241015865253E+00 -6.527103867691E+00 -1.026695915662E+01 2.841493915654E+00 -1.025275510042E+00 -1.305843841345E+00 1.248420725747E+00 -7.227413452971E-01 2.292835583472E-02 1.744414084052E+00 -7.775346523436E-03 -2.929906178614E-01 -3.146445275280E-01 1.191498282425E+00 1.040833506614E-01 -2.480477176452E+00 1.795729347653E-01 -6.284776546413E-01 2.262474921567E+00 1.238335544261E+00 -6.012766279944E-01 -2.104009583038E+00 1.900502349415E+00 -5.219772619285E+00 2.510867398639E+00 -6.924654839856E-01 1.113143210372E+00 -6.836790893697E-01 -1.788979427503E-01 -8.535334087769E+00 -9.786278323232E+00 6.555654886173E-02 2.878945169071E+01
 -1.813079057018E-01 -7.545686037539E-01 4.377225191922E-01 1.816359772806E+00 4.082765269834E-01 -3.417746673090E-01 -4.260765979761E+00 2.192786779985E+00 -5.451090225833E+00 1.147003171790E-01 1.516591642202E+00 -1.422387428713E+00 1.056297272059E+00 1.616562116247E+00 1.130533481882E-01 6.684345993799E-01 -7.020331437884E-01 -2.472535065091E+00 2.099100730594E-01 -3.897170157550E+00 -1.570739960877E+00 1.518618128067E+00 -8.352651732927E-01 1.177743896621E+00 -1.116330853716E+00 2.470727564429E+00 -3.825946364377E+00 -8.795120230130E-01 1.824879264256E+00 8.606338800066E-01 -2.207073233022E+00 -7.414913089883E+00 -8.702326907654E+00 8.024356499500E-02 3.796114930011E+00 2.400944668971E+01
 1.993379484971E+00 5.798043571722E-01 -9.734641639204E-01 -8.822523626191E-01 -2.556991598920E+00 3.766668235288E-01 -1.013619628000E+01 -2.956624977343E+00 -7.903654029397E-01 -2.740622509186E-01 -1.474494148427E+00 5.451889550435E-01 5.609624183095E-01 1.039683716067E+00 -8.209395091019E-02 7.725085586492E-01 4.395679762781E-01 1.167023216346E+00 -1.716411222352E+01 1.678226954997E+01 -6.876881360520E+00 -2.861331221874E+00 -6.239373280145E-01 -2.004523385803E+00 1.061841461583E+00 6.495773250196E-01 1.712925305539E+00 -1.099471743895E-01 -4.069221202831E-01 1.001472799303E-02 9.349092928705E-01 3.852442011821E-01 9.395282639307E-01 1.509771323177E+00 6.713753091250E-01 2.197617913043E-01 2.907354571084E+01
 4.910130527501E-01 -1.730701766374E+00 5.017411649906E-01 -6.410234607211E-01 4.234677124271E-01 4.777782946972E-01 -5.272085842590E+00 -1.767976753633E+00 -6.311457781054E-01 2.420055010183E-01 4.417894488008E-01 -6.503281585078E-01 1.083495236139E+00 -1.202380119621E+00 6.772789128674E-01 1.312472554184E+00 -1.124006873414E+00 -6.322554626541E-01 1.407721047882E+01 -1.914422219735E+01 7.446544334050E+00 -2.206902753188E+00 9.332851055669E-01 -3.750275484119E+00 9.230916305742E-01 2.290069206452E-01 -1.812622510262E+00 5.649370407187E-01 -9.306137200971E-02 -1.146751840488E-02 -4.405130723969E-01 -1.143698704087E+00 -6.444670313010E-01 -3.643246645070E-02 2.127950135147E+00 1.185993779857E+00 -7.453267700117E+00 2.637348009446E+01
 1.073390107016E+00 3.696890406055E-01 2.145743196309E-02 -2.541524928567E+00 1.176082586364E-01 -6.774590931300E-01 -1.464908270838E+00 3.886646807219E-01 -8.708933155094E-01 1.841078615878E-01 -1.706313021702E+00 -3.134876040292E-01 -4.253699823383E-02 1.162794099620E+00 7.259759157239E-01 -1.260255486027E-01 9.038625504049E-01 1.893461675258E-01 -8.323865371649E+00 1.008289319361E+01 -2.467955068931E+00 -4.607580400328E+00 -1.564695178033E+00 -5.110928096454E+00 -1.020251178645E+00 1.014028717655E+00 1.710176974622E+00 1.899987408778E-01 -1.122706877055E+00 -2.175821921784E+00 3.724354393605E+00 1.366443744413E-01 2.078203428596E+00 1.436695364434E+00 7.361280811827E-01 -8.523474406188E-01 9.362232074420E+00 -2.926340091702E+00 1.346691356022E+01
 -7.126448475003E+00 1.862684278356E+00 2.510166364610E+00 3.065241638315E+00 3.240932051267E-02 2.814527708568E+00 9.979024715831E-02 -7.969020999724E-02 7.469257565086E-01 6.822201271182E-02 3.257160649533E-01 4.082676037706E-01 -7.836589335293E-01 9.857056006314E-01 -6.744451867212E-01 -2.958697466676E+00 9.400626417756E-02 -3.979899446378E+00 -1.087411250223E+01 -1.495070609091E+01 -9.298951969953E+00 5.487556176674E-01 6.322851226262E-01 -1.828387850620E+00 -1.595049497382E+00 6.727990331511E-02 -1.232072522442E+00 -1.838131991983E+00 8.402442506182E-01 -1.353805843677E+00 -1.465379246213E+00 -1.486293535392E+00 -2.398414322696E-01 -2.442025006378E-01 7.140383882275E-01 1.789965379283E+00 -1.405845094165E+00 4.931636397597E-01 4.152498330142E-01 2.654994960077E+01
 1.329198647538E+00 -1.050116458426E+00 1.051139206543E+00 -1.574515162834E+00 2.742641947290E-01 3.259793277147E+00 -1.261274453545E+00 -3.347797610184E-01 2.959103613272E-01 3.252648891064E-01 -1.119772678012E-01 -3.235456025912E-01 -1.609859184562E-02 8.773302426116E-01 -7.296312613307E-01 2.659958346533E+00 -7.789683958567E-01 8.347294506833E-01 -1.075922290917E+01 -1.437436505275E+01 -7.958994259635E+00 -1.083625927881E+00 -1.801084604448E+00 -1.330542707951E+00 2.091015742668E-01 -3.696062684111E-01 4.094632998816E-01 4.173198022199E-01 6.132583610364E-01 2.267210676993E-02 6.696821268627E-01 -3.496477541866E-02 -1.026190873073E+00 -5.672091306742E-01 -4.396388059534E-01 3.068693845182E-01 -6.760381855114E-01 -6.148856257631E+00 -3.001790702668E-01 1.071029078730E+01 2.282453973424E+01
 2.093276505844E+00 2.946203142622E-01 -5.789389259839E-01 -4.139837565417E-01 -1.463519191979E+00 6.452867963595E-01 1.566063023375E+00 1.177755467298E+00 1.604541615914E+00 -6.470798232525E-01 -2.762328237990E-01 2.898161760457E-01 -9.534353870424E-01 1.442192497449E-01 -2.304594488667E-01 -3.194609442676E+00 -1.142169494997E-01 -4.792214943275E+00 -8.746312514074E+00 -7.170193175902E+00 -5.065372503390E+00 -1.014934179975E+00 4.902179131420E-01 -6.378446064807E-01 -2.245743696855E-01 1.142790209713E-01 9.801899333999E-02 -1.273915866196E+00 -1.143441498413E-01 -8.198981270044E-01 1.713586586465E+00 2.164667467215E-01 -3.118545076454E-01 1.410459886596E+00 9.366897287783E-01 -1.026377652208E+00 -2.109484013139E-01 -1.268607527013E+00 -1.774816031997E-01 9.575355362028E+00 5.614853203925E+00 1.218266049476E+01
 -2.568145039526E-01 9.214507609467E-01 5.417777150018E-01 -1.560608715243E+01 -1.298577722736E+00 1.532997560863E+00 -6.281852408832E-02 1.717665963947E+00 -1.398782436052E+00 -1.066629167537E+00 -5.345251291464E-01 -6.300403098773E-01 8.708630925158E-01 8.777867084323E-03 -1.537121533518E-01 -4.518153460507E+00 6.981447725460E+00 4.154679826374E+00 -7.669133649303E+00 3.701477272792E+00 8.772530893600E+00 -3.202464544547E-01 -5.028560723629E+00 2.460711730491E+00 -1.416536448157E-01 -2.160029812493E-01 1.034871355935E+00 2.876628021614E-02 1.487707611124E-01 -9.385049813786E-01 1.113885106558E+00 6.158680590425E-01 1.023445441876E+00 -9.165103696985E-01 -3.101113763801E-02 8.502073531981E-02 -7.456104110778E-01 -4.362724439798E-01 4.728971255353E-01 -5.649478154078E-01 9.747063388699E-01 5.071857836580E-01 2.995064677006E+01
 4.560911717327E+00 -1.373104709908E+00 -8.545931610900E-03 2.778869944130E+00 1.106448070197E+00 -1.537369356692E+00 5.039876819303E-01 -2.297402643271E+00 4.956043434035E-01 -7.968186870924E-01 2.149726341881E+00 1.177602986331E+00 -3.763637163933E-01 -6.128871920142E-01 -1.065908298971E+00 6.979662825677E+00 -1.151179232681E+01 -6.107755529490E+00 6.402600690575E+00 -2.623259139962E+01 -1.389164599522E+00 -7.008100944872E+00 -8.148598931527E+00 2.902941421337E+00 1.279251385397E-01 1.990019290406E-01 -2.272535326005E+00 -6.526039957472E-01 1.141800977275E+00 2.288939304242E-01 -4.675667132649E+00 -2.443875458147E+00 2.023837190901E-02 -5.994431237192E-01 1.821172715830E-02 2.258553671383E+00 -1.764123197331E+00 4.516514754917E-01 -2.519917815978E+00 -1.996311487460E-01 1.980905766505E+00 1.368451968613E+00 -2.801637694119E+00 3.387560165374E+01
 1.249386252933E+00 -5.775775815953E-01 4.746437402186E-01 5.173010893941E+00 7.713251306645E-01 -1.243046410230E+00 1.429310273951E+00 -7.379083959602E-01 1.273166501754E+00 -5.080686202308E-01 5.399467030360E-01 -8.668992701270E-01 -3.847051990995E-01 -5.469018410964E-01 5.599062410619E-01 3.068092264227E+00 -4.882196897079E+00 -2.940463167559E+00 8.277419113544E+00 -4.942578007081E+00 -1.159720225217E+01 1.403506122314E+00 2.513578084488E+00 -9.449632422584E-01 -1.343509510668E+00 -2.871784574578E-01 -1.791646298011E+00 -9.090978738576E-01 1.675947299019E-01 1.823124753272E+00 -3.244033128906E+00 -5.137531693504E-01 -1.992980201298E+00 -1.268885480721E+00 -3.212541210703E-01 1.714143783325E+00 -3.909777320754E-02 -3.399940097357E-01 -2.366552234160E+00 1.560494030689E+00 9.139995707796E-01 -1.479952806304E-01 -1.561698192835E+01 3.418466183263E+00 1.908189248382E+01
 -1.979047930343E+00 2.301479616358E+00 -1.100780644826E+00 -3.833335731655E+00 5.947466555813E-01 -5.488814041806E-01 -4.671083321043E-01 -1.155429933541E-01 -6.058812633985E-01 -1.299523390097E+00 -7.824865952497E-01 2.053414582178E-01 -9.532275861503E-02 3.853778167586E-02 1.501430322860E+00 1.175329251432E+00 1.416722989346E+00 1.011461395107E+00 -6.028704572064E+00 1.072271811718E+01 5.615427389991E+00 1.238135102731E+00 -2.075417309939E+00 1.671080647969E-01 -2.452765216423E-01 -3.654015509932E-01 2.203376311722E+00 1.473298559181E+00 -3.557831728246E-01 -2.042929906929E+00 1.790864584194E-01 8.227267941597E-01 -5.082613687445E+00 4.712414413706E-01 8.499144819060E-01 -1.111000903352E+00 7.124089010591E-01 -5.947265055496E-01 2.174202641306E+00 -1.449685620845E+00 -1.051893736810E+00 1.590883599516E-01 2.590445558910E+00 -5.229402987489E+00 -1.401909433460E+00 1.248850143031E+01
 4.700240264400E+00 -1.056765526900E+01 6.645014429396E+00 4.693765435595E+00 2.542495657548E+00 -1.711909480134E+00 -4.884568249265E-01 -1.155597460207E+01 -5.124927433399E+00 -1.084574007260E+00 1.342435358304E+00 3.044326596768E-01 4.886945835677E-01 -1.504134333095E+00 3.869898355110E-01 1.238287247549E+00 -4.439327158215E+00 4.518090536830E-01 1.007225281435E+01 -2.802986566404E+01 -1.139368068785E+00 -1.449545555157E-01 3.231682491759E+00 -1.962249610795E+00 -1.466673510744E+00 -2.206831511635E+00 -2.413822642114E+00 -1.338694475930E+00 -7.385465896724E-01 2.673299976894E+00 -6.724599176600E+00 -2.265906903015E+00 -4.293651943291E-01 -1.995874760039E+00 9.985721020966E-01 -7.404491583622E-01 -2.669168811096E+00 1.865140328274E+00 -3.746249365195E+00 -3.507555932374E-01 -2.955269351634E-01 -7.594666626195E-01 -3.485174142138E+00 1.365852949489E+01 4.004702705273E+00 -5.154031865273E+00 3.845009319480E+01
 -1.570060139070E-01 3.415205805808E+00 6.429476117086E-01 5.973720450491E+00 -1.721708652599E+00 1.230147943709E+00 -1.267879221326E+00 -6.523972141075E+00 -2.263235708439E+00 -1.212134656869E+00 2.381786491774E+00 3.066848871256E-01 -3.886624289763E-01 -2.950203192368E-01 -7.170504540471E-01 -8.152876171630E-02 -1.193717947693E+00 -9.902993239650E-01 1.026731131490E+01 -7.838247195869E+00 -1.843672665123E+01 9.725426849282E-01 2.736323023646E+00 -3.251322892795E+00 -2.110590850813E+00 5.427121891032E-01 -2.785455156831E+00 -1.655060375112E+00 -1.563563784494E+00 1.546190426780E+00 -1.044494502667E+01 1.448012369360E+00 -1.273586692537E+01 5.765707313598E-01 -1.342912973455E+00 1.426234926675E+00 -1.922551115012E+00 5.772742485966E-01 -2.160278455094E+00 3.507210643535E-01 -3.159449194445E-01 -1.596773658153E+00 -2.268815012857E+00 3.510338493563E+00 1.764807380720E+00 1.538691074488E-01 5.493546990532E+00 4.021126577160E+01
 -7.634290195539E+00 -4.935375212223E+00 3.733065499471E+00 2.512510557134E+00 1.516959829988E+00 -1.040477032583E+00 2.243203387343E+00 -4.746550010114E-01 3.674943024439E-01 -5.589185127161E-01 -5.215039492098E-01 -1.599438812865E+00 3.303333482406E-01 -5.051256604396E-01 -1.003073638063E-01 6.743627049993E-01 -8.741720816827E-01 3.024746422183E-01 1.164820631917E+00 -5.449677252057E+00 -1.122374511734E+00 2.618900196911E-01 -5.719720947543E-02 1.495837094667E+00 -1.353873563401E+00 4.054949288090E-01 -1.830160788658E+00 -3.313054940163E+00 -6.058565519251E-01 7.327989786755E-01 -9.899378866617E+00 1.214221538429E+01 1.165394919230E+01 -8.878502897032E-01 -6.615273544943E-01 -8.022730606429E-02 -1.428993939673E+00 1.435342841178E-01 -1.350298636939E+00 -3.144848321941E-01 1.877308995222E-01 -3.355841202204E-01 -9.507190950404E-01 3.424626991283E+00 1.608990983577E+00 -2.687488835155E+00 2.679031031611E+00 1.584777353224E+00 2.352611723888E+01
 -2.975561397986E+00 -4.559024158364E-01 9.356881140163E-01 5.660840065972E-01 3.399685758137E-01 1.339424842747E+00 1.508361034934E+00 5.123661076813E-02 -6.227982606767E-03 4.041204623073E-01 -2.652921782598E+00 -1.318205290795E+00 -2.138592479297E-01 1.217405082956E+00 1.156227548137E+00 -7.347381215593E-01 1.486828250397E+00 -1.854760023813E-01 -7.447414280059E-01 3.865694383830E-01 1.346250843023E+00 8.469955337591E-02 -9.735906840016E-01 1.002346649080E+00 -1.183254541883E+00 5.867173933460E-01 2.716355991289E-01 -1.990050281951E-01 -9.095704643127E-01 7.289488017503E-01 7.205641187971E+00 -7.150276657904E+00 -9.841041697799E+00 2.720362661334E-01 -2.939506815591E-01 -3.001011712690E-01 -9.704741864504E-01 -3.362223313367E-01 -1.362641535873E+00 1.388201660560E-01 5.733153598000E-01 -6.746058677482E-01 -6.921363408068E-01 -9.399620130233E-01 1.433099451584E+00 7.328209742166E-01 -1.522364260274E+00 3.070805372672E-01 -3.797916806171E+00 1.974963260209E+01
 2.641945261305E-01 1.515632164213E+00 2.747674335005E-01 2.337646284103E-01 1.015329300387E-01 1.060740101627E+00 1.583188292251E+00 8.230264624308E-01 -6.667447108340E-01 3.759553857190E-01 3.548675389980E-02 5.938215835998E-01 3.901394872857E-01 -1.554680563610E-02 -5.409361508648E-01 6.380709575017E-01 9.074821792813E-02 -2.061461136145E+00 -2.617900390449E+00 2.840337613415E-01 1.054401098263E+00 1.299643505153E-01 -1.341411937456E-01 -6.728820382166E-01 1.699623344284E+00 -1.235816674528E+00 -6.216896559331E-01 1.151312727486E+00 -6.406928728205E-01 -3.096085257437E+00 1.000526453659E+01 -9.214315635633E+00 -1.307032210628E+01 -1.846535760519E+00 1.150366692175E+00 9.283275973955E-01 -1.175116701886E+00 4.881512459451E-02 -1.263676821738E-02 6.238445984874E-01 3.857801525218E-01 7.535126594489E-01 9.534918110256E-01 1.567042856981E-01 -1.056970658644E+00 1.298930820800E+00 -9.984651719414E-01 -1.944161105125E+00 -1.088093780011E+01 1.041538363934E+01 2.492970412082E+01
 2.281651614823E-01 4.980655290162E-01 2.058631249962E-01 5.336021204586E+00 7.709485173127E-01 -2.276178251596E+00 2.613939583289E+00 4.064357681704E-01 6.760825733594E-01 1.283616502947E+00 -5.738820302606E-01 1.529372677409E+00 -1.022200094377E+00 -1.492756140933E+00 8.597631626684E-01 -2.149185670937E+00 7.662299317050E-01 3.077036951123E-01 1.160952274980E-01 -1.444444690527E+00 1.218943630334E-01 -1.277441844430E-01 4.464558781090E-02 -5.885081392743E-02 -5.935729969756E+00 4.266678024241E-01 3.290077269621E+00 -4.612164104812E+00 -1.667005156365E+00 8.058726750320E-01 -2.205916110360E+01 -1.627404774391E+00 -9.344440130773E+00 -5.585911685452E+00 2.143360844215E+00 1.404663967650E+00 -1.913370408957E+00 -2.241943100998E+00 -8.944906267318E-01 -7.785696882914E-02 -1.076352057755E-01 3.692762827498E-01 7.096837141833E-01 6.685220276275E-01 -1.639124527229E-01 -1.252467265616E+00 8.399154414098E-01 1.990606568625E+00 -1.509373598907E-01 -9.506327439559E-02 -5.547508342577E-01 3.510975839729E+01
 3.093876058653E-01 2.610889828313E+00 -2.020706002866E-01 9.260833525826E-01 1.018700137309E+00 1.022602527302E+00 -3.366996612374E-01 -1.046277123630E+00 7.132447901072E-01 5.631613515172E-02 -3.430915312977E-01 -6.241198516093E-01 4.986753097432E-03 2.460211918499E-03 8.395466791010E-01 -1.480415119564E+00 3.718099821078E-01 -1.258044857130E-01 1.310141694318E+00 1.229468022133E+00 -1.725221326922E+00 -7.783758040115E-01 9.742494206025E-01 -7.379659317666E-01 -1.817464980521E+00 -8.778112684807E-01 9.200222058532E-01 -3.910293537161E+00 -5.479389114639E+00 3.513654270716E-01 -9.370656006598E-01 -8.928512762950E-01 -5.954376063255E-01 5.834972550551E+00 -3.450315707108E+00 -2.881834196310E+00 2.267287070668E+00 -8.699701534574E-02 1.653665887058E+00 -8.888948359865E-01 -2.282859294458E+00 8.121833430067E-01 -1.266261103869E+00 -2.323084291143E+00 -2.635999765987E-01 8.718480385164E-01 -1.762493140160E-01 3.405178306335E-01 -3.454861619772E+00 -1.725139122909E+00 -2.941151829631E+00 -6.651208417935E-01 1.793659203154E+01
 1.422139624035E+00 -3.867235521349E-01 -2.232293612669E+00 -2.940403176140E+00 -3.984318937693E-02 -2.793580963344E+00 -2.502141525258E+00 2.871610607904E-01 -1.454577573317E+00 4.531569414381E-01 4.598208581478E-02 -4.088290388308E-01 1.886677049660E-01 -1.270973069323E+00 -6.247736768463E-01 -3.293869660266E-01 1.206736369496E+00 3.365722303558E+00 1.073321096683E+00 -6.772809556469E-02 8.804986135886E-01 -3.533553204350E-01 -4.388770238102E-01 1.914103408503E+00 5.890834303080E+00 1.091669270781E+00 -6.966789913973E+00 1.956527508447E+00 1.062221534024E+00 7.100267407745E-01 -5.667460815121E+00 8.125476445120E-01 -2.281379529905E+00 3.790238136702E+00 -2.888148971203E+00 -1.817355513142E+00 2.987215047977E-02 4.265693826805E-03 -1.507844125876E+00 -1.238520961337E+00 6.206690660363E-01 -1.561654433360E+00 6.602484682670E-01 2.392367591819E-01 -5.168358187208E-01 -2.688829470882E+00 -2.998409996634E-02 9.458196574591E-01 -3.293307042771E+00 -1.569349166587E+00 -5.672015931031E+00 5.628806245576E+00 -2.132940896885E+00 2.688362301068E+01