#BIOSYM hessian 1
@Type: Hessian Update
@Units
 distance: 	A
 energy: 	Kcal/Mol
#header
@natom 19

#label
L1      L2      L3      L4      L5      L6      L7      L8      L9      L10     L11     L12     L13     L14     L15     L16     L17     L18     L19

#element
Li Li Li Li Li Li Li Li Li Li Li Li Li Li Li Li Li Li Li

#matrix
57
 4.317671713666E+01
 -1.302163229967E+01 5.498089089493E+01
 2.277582322211E+00 3.918076042109E+00 3.336497241596E+01
 -1.188100092388E+00 -2.077004024765E+00 -5.092287335723E+00 2.817916634750E+01
 -2.517176844367E+00 -1.946018620728E+00 -4.641169502624E+00 7.358099826249E-01 2.322367198094E+01
 -1.301926355921E+00 -4.443723401631E+00 -4.880310376648E+00 -1.335102076193E+00 1.724725293237E+00 1.845713411928E+01
 -8.746496243411E-01 1.811725684380E+00 3.773039326619E-01 -2.980096901313E-01 3.403603269153E+00 6.959492269288E-01 1.555851478204E+01
 3.963492629676E-01 -5.406082899270E-01 3.815999368116E-01 -1.736952987635E-01 -5.939387952409E+00 2.621474503297E+00 7.146056644673E+00 2.708759856457E+01
 -1.810584255369E-01 1.138395006010E+00 -1.081109967330E+00 8.506887414298E-02 2.364875570469E+00 -1.589136529599E+00 3.014378526657E+00 4.271315090293E-01 1.929330720541E+01
 1.007333797690E-02 -3.138919571198E-01 -5.243680868028E-01 -7.803886036201E+00 1.621213516297E+00 1.934898132627E+00 -3.508251895314E+00 -1.527109818121E+00 3.059545091084E+00 1.640519707303E+01
 -2.313919791678E-01 8.117588880863E-01 -1.849535253489E-01 2.326561003676E+00 -2.582587000975E+00 -1.234387349750E+00 -3.797820463409E+00 -3.552019331827E+00 3.866406269621E+00 -3.878385793141E+00 2.398264379454E+01
 1.279270042511E+00 1.193389779211E+00 1.927666257110E+00 1.501421503170E+00 -1.049741926947E+00 -1.150720210416E+00 2.807031475781E+00 4.000058437676E+00 -3.049481108790E+00 -1.394478222789E+00 -3.054214371297E+00 2.436016910179E+01
 -3.818637663451E-01 -3.491635382595E-01 4.622249148974E+00 -9.729435416110E+00 -7.015811056808E+00 1.839021588873E+00 -5.363825038188E-01 2.858037530522E-01 -1.497451954266E+00 8.410939925594E-01 2.682828414347E+00 5.188965398803E-01 2.756231039470E+01
 -1.392133669314E-01 5.096622432473E-01 3.683226271009E-01 -4.209447735298E+00 -2.354581848790E+00 8.178315499167E-01 1.463012260631E-01 9.061902990143E-02 -1.829581586916E-01 1.506492225108E+00 -1.511848022927E+01 -1.888246718560E+00 -5.500501602455E+00 2.766893572984E+01
 3.927572147411E+00 -2.829549954674E-01 -6.435425665292E+00 2.369140609667E+00 2.103173662520E+00 -1.115246203033E+00 -3.061931135387E-01 -9.567131882272E-01 -2.290846136463E-01 -1.344300825386E+00 -1.460090793335E+00 5.244624651607E-01 1.176514166876E+00 4.195951032095E+00 1.666538107791E+01
 -1.917049351409E+00 4.540306283562E+00 -4.892515523497E+00 -3.828843438533E-01 1.075863673309E+00 3.017951057520E-01 -1.954501825484E-01 -7.998636667467E-01 8.091248599618E-01 8.584602956702E-02 7.688538783476E-01 -6.585408542565E-02 -9.396728022954E+00 5.934437791532E+00 8.963044964497E-01 1.865158576193E+01
 3.458480140567E+00 -5.590311803645E+00 7.622183840858E+00 -2.890536607559E-01 -3.232117401607E+00 -2.556003968848E-01 2.669165974492E-01 -6.258658420335E-01 -4.079922811694E-01 -9.749106726914E-01 1.702518472217E-01 -5.350127510385E-01 6.701612831700E+00 -4.261285481096E+00 -9.160174631051E-02 -5.029858570075E+00 1.719202170910E+01
 -6.292505516777E-01 6.747784224845E+00 -8.666773742191E+00 1.137545890034E-01 -4.191266147000E-01 -3.686401310200E-01 2.338263858704E-01 -9.244981300278E-01 1.322506979290E-01 -7.397328351201E-01 -2.142382589601E-01 6.890298050187E-01 2.750363612220E+00 -1.296148131742E+00 1.043538771651E-01 -2.202827432785E+00 -5.723038488305E+00 2.274365528887E+01
 -3.513839982328E-01 5.364545515777E+00 9.041640270766E-01 -3.321013101899E-01 -1.701291175643E-01 -8.793580597619E-01 5.755204056874E-01 2.032310540466E-01 8.616120136075E-01 -9.919967687589E-01 9.970138909190E-02 -6.991860208290E-01 1.062491034293E+00 -4.935079954006E-01 1.308153361343E-01 -7.094548249269E-01 -5.133085603735E-01 3.227770154151E-01 1.309092024753E+01
 3.529981321803E+00 -1.791520664958E+01 -5.437252781390E+00 7.412595447163E-01 1.181921660380E+00 -1.252900794776E-01 7.836178397884E-01 -1.835049524819E+00 -1.859818128175E-01 -3.838597920860E-01 -1.285749967045E+00 1.459653265667E+00 -5.642959294434E-01 3.331636990720E-01 9.929390186777E-01 -6.958163660853E-01 -3.881967081955E-01 -1.446734201735E+00 -3.728139097965E+00 2.990873414280E+01
 -4.908449999936E-01 -6.306614168024E+00 -1.219726277832E+00 3.750862340912E-01 -9.749142511297E-01 8.782229833282E-01 -2.485360880709E-01 2.470258859170E-01 -7.788344247367E-01 7.802009081055E-01 -4.261622907221E-01 2.329220502324E-01 -3.014204467001E-01 -1.099914666962E-02 3.665176112231E-01 -4.897403058596E-01 -3.044971932587E+00 -8.501879546637E+00 -5.056325005222E+00 1.353574718777E+00 1.813990317199E+01
 -5.710498432507E+00 -5.181624928867E+00 8.361807218695E-01 -2.700177431561E-01 -4.093349289102E-01 -3.959059483057E-01 -1.172727755666E+00 -7.155781289289E-01 5.037152473979E-02 4.390668704216E-01 -5.101417222312E-01 3.529057232892E-01 -1.471840080202E+00 -1.773089198058E+00 -2.584390284572E+00 -9.262934685592E-01 -6.904428606314E-03 -1.759336971618E+00 -6.082133362963E+00 2.038339336362E+00 3.271076654997E+00 2.150605703289E+01
 -4.280537606679E+00 -5.570915578590E+00 8.123942234307E-01 -8.182413173364E-01 -2.151208419260E-01 7.452233449849E-03 -1.394085416059E-02 8.266351219333E-01 2.162320194854E+00 -4.881507810613E-01 -8.056250501758E-03 -1.691686537365E+00 -2.301917449283E+00 -5.445994552934E+00 -5.209831225267E+00 2.759267246378E-01 -3.471584304793E-01 5.968142554524E-01 2.446452894783E+00 -6.316034563105E-01 -1.256394234852E+00 6.426958494290E-01 2.309510099187E+01
 1.387628527151E+00 -1.081095829146E-01 -2.589492857283E-01 1.092758563085E+00 -8.500447607900E-01 5.841095134513E-01 1.007787690841E-01 -7.597018779488E-01 2.781596660235E-01 -4.409862271118E-01 2.687246155317E-01 1.084780286700E+00 -2.088751281683E+00 -5.506815147507E+00 -6.304728822199E+00 -6.426449206340E-01 -4.198497185772E-01 -4.132754478631E-01 2.746792281958E+00 1.298763765463E+00 -1.867771910322E+00 -3.724918101733E-01 2.223042125878E+00 2.552174750456E+01
 6.061548176634E-01 2.284047723648E+00 5.240708291746E-01 8.192071940222E-01 -7.398288113483E-01 -5.048446608513E-01 1.267202546497E+00 1.389881584214E+00 3.717419354672E-01 -3.410065547506E+00 -9.887720551295E-01 6.344631173478E-01 -7.880238343138E+00 2.609685286000E+00 -5.685194598172E+00 -4.640317447225E-01 -3.391146634840E-01 1.335457638326E+00 5.163976967980E-01 -4.723508202843E-01 4.023866964843E-01 -2.362009190153E+00 5.585024857556E+00 1.814922068488E+00 2.540120306042E+01
 6.889877912181E-01 4.194366894472E-01 5.688877273232E-01 -1.454628441265E+00 1.962454247858E-01 -2.146584716098E+00 -9.674945662793E-01 -5.717544877169E-01 7.055131527292E-01 -4.807574480675E-01 -1.031692363444E+00 9.247314653759E-01 2.921113139981E+00 5.487860763971E-01 1.883954545613E+00 9.879333510636E-02 5.691916215771E-01 -2.889507865599E-01 9.641633791977E-01 -8.696431738499E-02 -6.408355043368E-01 4.700117344250E+00 -9.878279310746E+00 -7.318419877285E-01 4.244372479174E+00 3.050873381142E+01
 2.904974293486E-01 -5.285018529336E-02 8.716059096239E-02 -1.317053536240E+00 -5.841885992913E-01 1.231384605003E+00 7.696871947856E-01 5.543353825874E-02 -7.202212937151E-02 -3.024354315144E-01 -1.010227749714E+00 -1.926914211080E+00 -5.997843106702E+00 2.149690617254E+00 -6.475022368418E+00 2.877479737776E-01 -1.858383046434E-01 6.578501166663E-01 8.104163532603E-01 9.116308750636E-02 -5.017192486108E-01 -1.611546521991E-01 -1.289317280349E+00 1.614671767149E+00 9.063936559397E+00 1.060452091785E+00 2.404318466343E+01
 -6.642096277747E-01 1.090974463518E+00 3.429496680084E-01 -9.841760581868E-01 -2.909324564817E-01 -2.956686754775E-01 -1.379159144319E+00 5.372043586796E-02 5.728350516778E-01 -3.278364258664E+00 2.727347889559E+00 -4.704316807648E+00 7.466627026382E-01 8.153849674126E-01 9.859306194336E-01 -7.445969038120E-01 -4.143570793402E-01 1.208322687168E+00 -2.619506171921E-01 -2.364733657917E+00 -2.906057327502E-01 -2.654732793206E-01 -7.141718852305E-02 -1.121852377750E+00 8.698259226747E-01 -1.668997827031E+00 5.533168066641E-01 2.307130332811E+01
 6.601588774238E-01 -2.557349380791E+00 -1.266143499968E-01 4.976865091696E-02 6.669293847634E-01 1.110449524882E+00 1.118476578522E-01 -5.911186137471E-01 -2.163791937521E-01 2.378009474280E+00 -1.644072860425E+00 3.018390669309E+00 5.329769758881E-01 -2.000344940977E-01 -1.549544390205E+00 -2.233056441072E-01 4.520121649032E-01 -1.469053788392E+00 6.588575988869E-01 1.183138507051E+00 -3.378785667706E-01 1.143157251498E+00 -1.317091620300E-01 1.290676212277E+00 4.277027965110E-01 -4.948041651921E+00 -1.085353568316E+00 -1.253732272516E+01 2.063605711386E+01
 -7.058702424185E-01 2.598315523716E-01 -6.189642734336E-01 -1.421470540660E+00 8.748199498308E-01 7.396765224093E-01 -1.806399760522E-01 -4.962098171640E-02 -1.276237626166E+00 -5.495776561750E+00 3.955570395049E+00 -8.309090949510E+00 -1.193242773692E-01 -1.039998162538E-02 9.197664064609E-01 -3.454267254108E-01 1.320989370113E+00 -9.649976088450E-01 9.464096034254E-01 -6.141878017062E-01 -1.953363570705E+00 -7.723348200980E-01 1.677934310197E+00 -6.171789615877E-01 -1.201696939530E+00 5.302021227169E-02 -6.509893723494E-01 3.101467911389E-01 -3.025337694496E-01 1.798186660325E+01
 1.946018186428E-01 1.758327036851E-01 -1.363087819180E-02 7.160992694940E-02 1.275386488703E-01 1.186933345232E-01 -2.465924592892E+00 1.557013331146E+00 -4.328183334488E+00 1.156732987364E+00 -4.672559980732E-01 7.460663815709E-01 -3.438870333468E-01 2.892015135594E-01 -2.144421266687E-01 -7.288579473857E-01 -6.652273364359E-01 -1.570842838078E-01 -3.407575480748E-02 5.157764730077E-02 -4.802021610878E-01 -4.685986599532E-01 -1.802264459416E-01 5.915867348069E-01 -1.401524700217E+00 -1.075284112159E+00 2.130983244612E-01 -3.983103841734E+00 -2.897790321295E-01 3.834968228003E+00 1.251397386787E+01
 -6.453322413953E-02 1.567005957040E-01 -1.911638496133E-01 4.805787881536E-01 9.848458253298E-01 6.371964353915E-01 -5.462102277713E-01 1.070705576886E-01 -1.058295838718E+00 6.473027015739E-01 1.216956404424E-01 -7.139260159328E-01 -7.207479625482E-01 -2.109868501604E-01 -1.896103908730E-02 9.040865661093E-02 -1.085352802386E+00 -2.326757809368E-01 -5.908107864192E-01 -1.059213714290E-01 1.187815215037E-01 1.237267567399E+00 -2.869900503127E-01 -5.110426030579E-01 -1.921033361450E+00 -2.610910998539E-01 -2.461064361667E-01 -4.677400882038E-01 -1.139495628224E-01 1.157299635001E-01 -2.603733707118E+00 2.632387396338E+01
 6.953881282804E-01 -2.849278175619E+00 9.245565408859E-01 3.360938199826E-01 2.013844512453E-01 -6.986741671053E-01 -4.354599525472E+00 1.199790501121E+00 -8.033977355299E+00 3.708453565349E-01 7.523511935018E-01 -1.764014305070E-01 2.263715100988E-01 2.900195537419E-01 -6.231883155656E-01 -4.079080160675E-02 5.289113328933E-01 -7.566949441442E-01 -3.640152415616E-01 -2.242482297925E-01 -2.381302042411E-01 1.098746222613E-01 -1.497873369139E+00 1.883385667608E-01 9.666569009716E-02 5.989681479873E-01 1.610853853494E+00 2.913168454227E+00 1.156401856778E+00 -3.595095349114E+00 8.307663604452E-01 -5.011586144316E+00 2.521124636682E+01
 -5.189371800103E+00 8.158759760094E+00 6.373794027143E-01 -2.671818969039E+00 1.867413268253E+00 -2.091796738532E+00 -5.423709224001E+00 -8.123061436982E+00 -3.177075782058E+00 3.010325998934E-02 9.080312756592E-01 9.883587689355E-02 -1.089580558814E+00 -1.216848518397E+00 1.296826424526E+00 -2.362108162358E-01 -3.902051360540E-01 -2.282947133214E-01 -1.451813148019E+00 1.529713255573E+00 5.057835989198E-01 6.914196377878E-01 6.268229269639E-02 1.669555163359E-01 -1.137741123348E+01 -5.203482974172E+00 4.459591404942E-01 -1.318021817890E+01 1.065276129750E+01 2.724298006383E+00 -4.444362590542E-01 1.208447798485E+00 -4.409391803109E-01 4.778251486447E+01
 1.237272006603E+01 -1.628191013189E+01 -3.238434650297E+00 2.218127795841E+00 -3.443306480933E+00 1.384067575067E+00 -7.789547740281E+00 -1.228361543005E+01 -4.141374340931E+00 1.348399219881E+00 3.445909687199E-01 -1.289098957455E+00 1.290023077049E+00 -3.505918795234E-01 1.076890848712E+00 -5.553828941383E-01 1.739221433833E-01 1.296424178663E+00 -8.663709959487E-01 -7.622283682409E-01 3.490161797178E-01 5.739478678936E-02 1.122937547152E+00 -1.989660577030E+00 -9.986162468888E+00 -6.189593815109E+00 3.201983379655E+00 1.137493763740E+01 -8.939934694649E+00 -8.375750611422E-01 3.203239257510E-02 -1.115290902021E+01 9.427535543899E+00 -8.480361615390E+00 6.054980120074E+01
 -1.755782087687E+00 2.784000578511E-01 5.015112446804E-01 -2.358941054849E+00 5.698962266540E-01 -2.365848748894E+00 -3.160587187525E+00 -5.247148042397E+00 -1.451422570913E+00 2.642032983834E+00 -3.321897122257E+00 -1.214973350666E+01 2.161773114209E-02 1.790668387292E+00 4.231423859201E-01 -2.727778811837E-01 1.552051306161E-01 -1.064538427990E+00 1.090460843566E+00 -8.172199236576E-01 -8.614587392814E-01 -6.648112132373E-01 5.256135242643E-01 -1.159571903998E+00 1.695971592113E+00 5.220121637394E-01 -4.959139050356E-01 9.307694707059E-01 -1.194645450264E+00 1.372470098052E+00 6.291525345852E-01 9.595429485306E+00 -9.740414030211E+00 -1.873525501947E+00 -2.174353765295E+00 3.220691883942E+01
 -1.757115110976E+01 2.904480357136E+00 -3.823859164735E-01 -3.007207201884E+00 1.919000924737E+00 2.635893815774E-01 1.339828974924E+00 -2.144980781752E-02 -3.980318594494E-01 1.384182692091E-01 -4.937907690157E-01 -1.556757348717E-01 -5.758865192989E-02 4.039439075245E-01 -3.445125133403E-02 -5.128537379104E+00 -3.108855542721E+00 1.719920456940E+00 -1.301696952421E+00 6.647726068970E-01 1.511734368362E+00 5.427401319154E-01 2.577289054876E-01 -5.285195108809E-02 -3.498815627182E-01 -4.024745375257E-01 -1.414919124012E+00 -1.206700175883E+00 -7.351099032708E-01 2.450023880059E-01 -2.327890022172E-01 1.777583541468E-01 1.254547046019E-02 2.544601403396E+00 -2.562950493940E+00 4.942452475403E-02 3.170973090163E+01
 1.279023467498E+00 -6.798981481179E-01 -7.857192745832E-01 2.903627089365E+00 -3.544650769604E+00 -1.617693569670E+00 -1.075464742275E+00 1.184634696625E+00 -4.854838277765E-01 1.353384481123E+00 -6.395547432746E-01 2.243640856193E-01 8.977157661919E-02 9.502713443585E-01 -3.974013612819E-01 -4.921904838332E+00 -4.372301581432E+00 3.121423133719E+00 -3.398752535416E-01 -9.175453276087E-01 5.184004944266E-01 -1.245108221359E+00 8.322847565145E-01 3.317458048455E-01 -9.567922118514E-01 -1.158343270444E+00 -3.620104485127E-01 4.894281170315E-01 7.470030516298E-01 2.782257480591E-01 1.598315589394E+00 -8.613877561019E-01 4.097221411955E-01 1.228489720859E+00 -7.574714477089E-01 1.325799213818E-01 -2.275333808159E+00 1.679231858225E+01
 -1.496272529649E+00 1.527343490578E+00 1.450409637725E+00 2.315844402943E+00 -1.997030379041E+00 -3.286736111273E+00 -2.464267706427E-01 1.361378964320E-01 -4.963659998848E-01 1.733197243708E+00 -9.003860051025E-01 9.564464981180E-01 -6.804975675975E-01 -8.647206675542E-01 -7.240844711790E-01 4.594408307533E+00 3.019547773482E+00 -4.753595911968E+00 -7.031310520535E-01 -7.463271232034E-01 -1.093550160347E+00 5.912908938817E-01 -2.861397112936E-03 1.879775389825E+00 -2.647506977761E+00 -8.210721662825E-01 -2.651719105095E-01 -7.152225016670E-01 1.240631782684E+00 -8.240568528013E-01 -7.001243007015E-01 1.098541681042E-01 6.446046642088E-01 8.658960429136E-01 -1.228306274132E+00 -1.044214649438E-01 2.559349533586E+00 -2.642511265329E+00 2.016143634913E+01
 -1.686624312627E+00 -1.402138524381E+00 5.465046791940E+00 -1.691790893881E-01 2.481756522475E-01 -5.003636691621E-02 3.633996395399E-01 -7.144654373228E-01 6.879213913613E-01 -1.985044474240E-01 -3.235148599768E-01 -9.956315301122E-01 2.368332480414E-01 5.107956154464E-01 -2.108114563956E-01 -1.172522641774E-01 1.399989036771E+00 -2.312786934169E-01 -8.707904275537E-01 -1.468929695664E+00 2.569842707894E+00 -3.914149862664E-01 4.079780862161E-01 -1.238350214155E+00 1.265512644733E+00 2.766247650955E-01 8.850561309602E-02 9.383139768266E-02 -1.149237306934E+00 2.693187487904E-01 -4.841545348837E-01 -4.399428624413E-01 5.325579824805E-01 -9.466747850383E-02 1.287293287442E+00 -1.749385092703E+00 -3.060068108712E+00 -9.195910747217E-01 -6.078593491660E+00 2.046851400227E+01
 9.785831393549E-01 -1.812999080527E+00 -9.264258501836E-01 2.069135084445E+00 -8.355734830046E-01 1.029023896595E+00 4.911273004568E-03 4.493186599428E-01 -1.311203972998E-01 -2.394304336872E-01 -1.032886236059E-01 1.755329834332E+00 -2.105924116162E-01 -2.910053175276E-01 -8.295714608679E-02 8.454656861324E-01 8.140778228213E-02 -2.760437360972E-01 -4.895682851235E+00 -7.162325692733E+00 8.149333504844E+00 -4.819436450800E-01 3.227091768417E-01 3.337220359531E-02 -6.072444155714E-01 1.901526022298E-01 -3.250557970137E-01 6.554037962343E-01 -1.103652744800E+00 -1.302665287319E+00 -8.685046883164E-01 -4.031065330845E-01 -6.316591135461E-01 -1.115706313862E+00 9.205202737617E-01 -1.152489380408E+00 -2.145001262948E-01 -1.814373111146E-02 3.212129150195E-01 -5.017679908612E+00 2.442246378793E+01
 3.941442201021E+00 -3.922844816317E-01 -9.354962348478E+00 1.863025488985E+00 9.255346338037E-01 -4.320276412058E-01 5.413008905413E-01 -6.453955038493E-01 1.871300486972E+00 -8.960972697601E-01 1.933277227341E+00 -1.724601570451E+00 -5.286243009709E-01 -1.581842061208E+00 4.581958865361E-01 9.048228742664E-01 -2.018891355135E-01 -1.001526640164E-01 2.161099431686E+00 5.833696286333E+00 -3.207617431856E+00 2.521994426600E-01 -7.959347578207E-01 -1.415522527907E+00 5.622547661653E-01 1.142481096812E+00 -6.212712872695E-01 -3.762333743195E-01 -4.961321349166E-01 1.007838073301E+00 -5.150436701466E-01 -3.065202268135E-01 -8.659751985488E-01 -2.390324300002E+00 1.388848449757E+00 8.506893820791E-01 -4.775432763384E+00 -7.783384871938E-01 -1.035452594811E+01 1.559263155153E+00 -4.198713170536E+00 2.593153985771E+01
 -5.121954290827E+00 -1.973121231242E+00 -6.124532159204E+00 7.339853215918E-01 1.038522193816E+00 -3.119905390776E-01 -9.940730223344E-01 -7.706731781600E-01 2.449970905006E-01 -8.029666301993E-01 1.399231570854E+00 -3.920128553072E-01 -1.010508979104E+00 2.984314357944E-01 4.980058380621E-01 1.242976169654E+00 -7.333435058481E-01 -1.940599260624E+00 -2.892760109854E+00 2.118882879646E+00 -1.302370756648E+00 -6.243487280469E-01 -2.545987291914E+00 1.726622378692E+00 -6.681676573205E-01 3.708872933581E-01 -1.057375830168E-01 -4.966905770419E-02 -7.292185558103E-01 1.455812161407E+00 1.475951997526E+00 1.149979126597E+00 -1.510168211235E+00 -1.315072784838E-01 1.216183121218E+00 8.949346768566E-01 -1.374762491686E-01 -4.400856284560E-01 1.286411943832E+00 -2.629950153962E+00 -1.089306599383E+00 -1.280448708081E-01 2.802547965102E+01
 -1.217998688357E+00 -5.381214654335E-01 -2.576646207495E+00 6.015582272827E-01 -1.230171030710E-01 3.723054917527E-01 -8.386446269867E-01 -2.323775333132E-01 -1.034593877632E+00 5.878275298905E-01 -7.361029845752E-01 3.107993263488E-01 -1.687681062941E-01 -1.142085382090E+00 6.025496945033E-01 3.964908994394E-01 2.115632057297E-01 1.451302565552E-01 2.758578144657E+00 -1.753016256907E+00 1.383880616346E+00 -2.173037203960E+00 -2.615771008731E+00 5.396750505967E+00 -1.928739741815E-01 -3.052046040888E-01 4.445458430865E-01 -9.438390166115E-01 -3.497980257000E-01 -1.270160442845E+00 2.640775660278E-01 5.111257388319E-01 4.182957241680E-01 2.774763049386E-01 1.765254318663E-01 6.369306038921E-01 -4.291922059936E-01 1.368710874181E-02 8.985596377635E-01 -3.811801668223E-01 -4.615525170920E-01 -7.378380211039E-01 3.253058954039E+00 2.361931493419E+01
 -6.299905300255E+00 -1.378687653611E+00 -4.636698368557E+00 -6.518952655897E-01 -5.214746068203E-01 -6.026364568447E-01 -5.444882248491E-01 1.171117954838E+00 4.996251485599E-01 1.298106000915E+00 -8.859829435833E-02 -7.578420788055E-01 -5.018246400542E-02 2.541922179658E-01 1.860015021980E+00 1.345840938679E-01 -2.298755827828E-01 5.063779448993E-01 -8.212243273468E-01 -1.777446026783E-01 -9.098424219528E-01 2.313658439761E+00 5.054937779223E+00 -1.399461338092E+01 -1.575897367567E+00 -6.271315036972E-01 -7.158056999814E-01 4.326377501536E-01 3.477020902096E-01 5.771372373931E-01 5.805273928716E-02 -1.248080587759E-01 -9.322959095011E-02 -2.504452665471E-01 1.764863738251E+00 1.027230418655E+00 -2.882594255807E-01 -2.381550671538E-01 -1.124405745328E+00 3.066772221768E-01 -4.640106254717E-02 -4.240903329202E-01 4.325846410538E-01 -6.860532169394E+00 2.012418210962E+01
 -8.745463727767E-01 -5.632012803490E-01 5.154900606487E-01 -1.306150463220E+00 -3.264656065575E-01 7.220151669865E-01 -2.491247490050E-01 4.495692357903E-01 -8.102053934533E-01 7.112740949057E-01 -6.020443630570E-01 -1.184987016615E+00 1.114894030357E+00 2.466439838282E-01 -7.943574244843E-01 -3.490579372488E-01 6.472650542250E-01 1.710951842022E-01 4.202825231164E-01 -1.764372566772E+00 -8.476084768807E-01 -3.047630376337E+00 1.116742752639E+00 -3.183714010982E+00 -2.541167175866E+00 -3.926795410798E+00 -2.843906949092E+00 9.269766757541E-01 -5.334996949532E-01 -2.321471035201E-01 -6.418946668685E-03 1.237723594049E+00 5.165452583172E-01 4.309490728562E-01 2.394540014355E+00 2.045939459037E+00 -1.294852703850E+00 -1.839671954966E-01 4.285640424861E-01 -1.832089089144E+00 1.295672492544E+00 -2.799488433598E-01 -1.045252790287E+01 -3.382643565475E+00 3.397116560161E+00 1.807245682435E+01
 2.458975140081E-01 -1.983293583894E-01 8.362179152342E-02 1.094054110291E+00 2.062395689610E-02 -1.231773193710E-02 -9.756778911396E-01 -7.807864461243E-01 -3.009885780894E-01 -6.338201175099E-01 -1.262763895280E-01 1.270964840727E-01 -3.510678498617E-01 -4.724848633184E-01 1.754473882817E-01 5.957995240241E-04 4.215162995866E-01 -8.387585546222E-01 -3.877617986891E-01 4.031867200745E-02 -5.892341297561E-02 1.860448540597E+00 4.065749447522E-01 -2.529654007570E-01 -3.422387305298E+00 -7.235483567757E+00 -5.915870242348E+00 8.310877958990E-01 2.969427028696E-01 -1.670520003374E-01 -4.888174396966E-01 1.310529928254E+00 -2.133618042979E-01 -1.996273893882E-01 4.219114361689E-01 2.359055751474E-01 6.390457066713E-01 -3.286502239104E-01 1.089995927617E+00 1.440087973986E-01 -3.901574999807E-01 7.314131748141E-01 -1.831486742674E+00 -2.771103827717E-02 1.169570839602E+00 5.616228273061E+00 1.166260251732E+01
 -7.341607422771E-01 -5.795694521467E-01 3.627599718275E-01 1.270341237061E-01 4.489187048194E-01 2.280283188337E-01 -1.124454194185E+00 -3.202358098866E-01 -2.313782041204E-01 9.420889504281E-03 -8.547253480218E-02 2.542729121945E-01 7.999683256240E-01 4.409385609905E-01 5.249157919710E-02 2.654384576762E-01 -1.544873714524E-01 -7.374933566113E-02 -3.742573675540E-01 -4.700147625657E-01 1.672017958681E-01 -2.761795357415E+00 -1.419012569300E-01 -3.950342703397E+00 -5.190436495273E+00 -6.651336795583E+00 -6.328525386167E+00 -2.173805287505E-03 -5.134702366335E-01 4.073087370811E-01 2.582158848400E-01 6.878697927925E-01 -5.483924151848E-01 7.107738557874E-01 9.781279955110E-01 9.587808980309E-01 7.584428933120E-01 7.349247667079E-01 6.364558077794E-01 -1.771582935180E-01 6.597805448411E-01 -2.237395009811E-01 2.911423022716E+00 1.160495750594E+00 3.455332312997E-01 2.700906219770E+00 5.142343702616E+00 1.039088038413E+01
 9.933153296115E-01 -4.710786972626E-01 2.268311742509E-01 -1.654860701928E+00 -4.573670523756E-01 5.915683862968E-01 2.105158307627E-01 1.051247746615E+00 -5.964764857063E-01 1.597723436258E-01 -5.758689238586E-01 3.780439409283E-01 1.007668361689E+00 -1.172115398317E+00 -7.479598770896E-01 5.025032975322E-02 1.508333827805E-01 1.547227831383E+00 -5.827313983380E-01 -6.645998839179E-01 -4.246544065911E-01 -3.049846473626E-02 4.841421269647E-01 3.046965780575E-01 1.263464414398E+00 1.420755551086E+00 -7.831463892088E-02 1.109943396662E+00 -4.687052131575E-01 1.293969738016E-01 -1.997355887294E+00 -4.802887996134E-01 -1.944111987797E-01 -5.425570511351E+00 -9.917180166122E-01 -2.899936467391E+00 -1.880664671105E-01 1.951155971334E-01 4.216207634414E-01 5.501896183718E-01 7.378894451748E-01 -1.645998284397E+00 -5.028326577404E+00 5.861214778309E+00 1.527322022461E+00 -1.726439270918E+00 -3.187767017555E+00 6.908911459864E-01 2.363971937761E+01
 -7.325185764006E-01 5.141816388939E-01 -9.002128232797E-02 -1.286396855376E+00 -1.078557390740E+00 -6.709143178261E-01 -1.150171942497E-02 -2.771601060805E-01 -1.162280704541E+00 -1.213329265276E+00 2.329860220973E-01 -6.645471117940E-01 6.647835102828E-01 3.523134685481E-01 1.895578009924E-02 1.061364237187E+00 -2.288729252766E-01 6.482716376969E-01 3.443841783224E-01 -2.807960511281E-01 1.240449144427E+00 1.227516259378E-02 1.510204068552E-01 -1.822774561457E-01 3.664053810738E-02 1.489012589803E-01 3.559823499209E+00 -1.401146140416E-02 -3.961671836852E+00 -3.657976944655E+00 -1.338584700569E+00 -1.793052309307E+00 -2.221044078031E-01 1.268362787345E-01 -1.720414736605E+00 -1.473609909178E-01 3.322706995204E-01 -1.427566724403E+00 7.865101586956E-02 -7.187321739695E-03 2.379208324489E-01 -2.984167689798E-01 5.193594846715E+00 -6.916263988409E+00 -1.819511939964E+00 -9.509124797884E-01 -4.405617326442E+00 6.956815900191E-01 -1.415178003580E+00 1.920290997731E+01
 8.961307466663E-01 -3.243734309445E-02 4.686935745395E-01 4.457452119658E-01 1.067376729080E+00 -8.416702651973E-01 -3.280729053668E-01 -3.807190223523E-01 2.559987761413E-01 -3.156583258499E-01 8.488743290514E-01 1.786172098923E-01 -1.293065293814E+00 4.806463019915E-01 1.137137686505E+00 1.517119481553E-01 -6.660215661977E-01 -1.082063319140E-01 -7.553052806089E-01 2.738967385395E-01 1.014809865136E+00 5.597175955244E-01 -8.782004940603E-01 -1.094695455037E+00 -4.306860525835E-01 3.060190069986E+00 -1.180643927849E+01 -3.472343387254E-01 -1.703737962674E+00 -3.988226358185E+00 -1.022896856883E+00 -4.192186048352E-01 -1.307627355848E+00 -9.466980630224E-01 -3.162415960861E+00 -3.642250076550E+00 4.440274419770E-01 -1.335401961918E+00 -1.413084160676E+00 1.473104446353E+00 -6.065517025241E-01 1.299493346483E+00 1.159466600082E+00 -4.359178947220E-01 -5.753601249596E-01 4.169496549795E-01 1.408185387356E-01 -5.126735752144E-01 -1.967683022816E+00 1.882728760214E+00 2.231052266406E+01
 -3.792258251769E-01 3.196457750401E-01 1.553705570520E-01 5.742620561773E-01 4.703788588607E-01 8.782852453475E-01 -7.283643384876E-01 -2.496375182795E-01 8.327226325840E-01 7.831002290772E-02 1.063064430462E+00 4.134584985512E-01 -1.295248469525E-01 3.238153543684E-01 5.194057781532E-01 1.203728444383E-01 2.481618639478E-01 -1.444133997861E-01 7.713043396015E-01 1.139242743677E-01 -4.628774650470E-01 6.785921645176E-01 -4.462891942501E-01 -3.290644886717E-01 -1.048647613586E+00 -7.733701556998E-01 -3.547445094256E-04 3.327622335320E-02 4.087231978189E-01 -3.256475118562E-01 -5.089463721571E-02 1.480949786980E+00 1.649409885018E+00 1.512151579135E+00 1.471878896286E-01 9.473659456260E-01 1.616715946102E-01 -7.117313738126E-01 2.078841073045E-01 -1.117176151798E+01 7.522420274592E+00 -1.502802225114E+00 -3.029290882809E+00 -4.319750373578E+00 1.154601665896E+00 1.972878355826E+00 7.266756930383E-01 7.964280866446E-02 -1.159849205778E+01 -1.477424132573E-01 2.722497026716E+00 2.901120155364E+01
 5.707161144309E-01 -2.516370702355E-01 2.043813948355E+00 -1.108489706621E+00 2.020877144931E-01 -6.802181765640E-01 9.282995604512E-01 -2.665171389177E-01 6.592148383635E-01 -8.587963608664E-01 8.869309691468E-03 -8.118519901692E-01 9.945148296392E-01 -4.771990606730E-01 -4.590185079790E-01 -1.165152403615E+00 3.756938189399E-01 2.878379236734E-01 -9.218532089446E-02 1.072258146378E+00 3.706011380002E-02 3.727282557975E-01 3.371108623827E-01 3.340101968058E-01 3.071060956619E+00 -2.067463511806E-02 -2.161331056825E-01 -2.924733811091E-01 4.433287077387E-01 1.045943338516E+00 2.079636554029E+00 -1.219460367763E+01 -5.682986919913E+00 -1.808805500076E-01 -8.733421926992E-01 -1.441412512994E+00 -3.040229476556E-01 1.282263896598E+00 -2.869068047990E-01 8.501378378039E+00 -5.823573863549E+00 1.665697399081E+00 -5.964990037063E+00 -1.007373781930E+01 2.495133046898E+00 -1.590409862222E+00 -2.514048859404E-01 -1.439994551039E+00 2.372005403570E-01 4.729368041196E-01 1.543199086307E+00 -4.088161099562E+00 2.853467443330E+01
 3.876932773701E-01 -7.800248258128E-01 2.975299596645E-01 -1.688480100616E-02 2.711008211037E-01 -4.856000265016E-01 6.464417212389E-01 9.172158958618E-01 -4.260784195034E-02 -2.544940206316E-02 7.081633357599E-01 -6.054123896789E-01 9.432158478539E-01 -9.528832989695E-01 -9.291727433296E-01 7.428978552097E-01 3.676937422563E-01 -2.786706765748E-01 5.590211201708E-02 -7.179341090089E-01 -4.058936912948E-01 1.136794029038E+00 1.345903680646E-01 6.828615177085E-01 1.939514921079E-01 4.959367421737E-01 8.048704737529E-01 -7.701841198761E-01 4.081180872966E-01 -2.259803844512E-01 1.543641529235E+00 -3.088104209226E+00 -1.444399936995E+00 1.132370234654E+00 -2.274802521656E+00 -4.378713949426E+00 -5.761775387869E-01 7.327734871614E-01 1.720661631430E+00 -2.421319329963E+00 2.455909232740E-01 2.463452453263E-01 7.250602205022E-01 1.634218141141E+00 -2.088417527256E+00 -2.584587224805E-01 -5.237091137071E-01 -1.385723476504E+00 2.338453228714E+00 1.184063829304E+00 -1.426792899459E+00 -1.822633536673E+00 2.928790911328E+00 1.346042307422E+01