#BIOSYM hessian 1
@Type: Hessian Update
@Units
 distance: 	A
 energy: 	Kcal/Mol
#header
@natom 19

#label
L1      L2      L3      L4      L5      L6      L7      L8      L9      L10     L11     L12     L13     L14     L15     L16     L17     L18     L19

#element
Li Li Li Li Li Li Li Li Li Li Li Li Li Li Li Li Li Li Li

#matrix
57
 1.396335316207E+01
 -9.949778283576E+00 4.216150790763E+01
 1.330931732995E+00 8.204728160625E+00 1.752302398205E+01
 3.206415893747E+00 -6.333857019203E+00 -2.469801406175E+00 1.834823010518E+01
 -1.253794787979E+00 -7.033522146895E-01 -3.186087161957E+00 4.267486503543E+00 2.182073475881E+01
 -2.228976983287E-01 -3.410621959936E+00 -3.883479719610E+00 1.031439912906E+00 3.279920619281E+00 9.539075139165E+00
 1.941753791699E+00 2.863932273021E+00 5.431641335612E-01 5.118766825914E-01 1.962954060883E+00 -1.190260748019E+00 1.737405365262E+01
 -4.576337683464E-01 7.921138414540E-01 -2.167761924484E+00 2.195423777144E+00 -6.464018152987E+00 1.932939744901E+00 3.142879963788E+00 2.268949704387E+01
 2.464164894116E+00 -1.819777134623E+00 -1.152991448145E-01 -1.363766795726E+00 1.560274500239E+00 -1.195097076919E+00 1.157419121441E+00 1.650826652752E+00 1.765880029700E+01
 -2.828473955574E+00 -1.023180072050E+00 3.213663494204E-01 -2.335589910032E+00 -5.955075041244E-01 1.689478949835E+00 -5.121295263676E+00 -3.245917114144E+00 2.275033284143E+00 9.189174843421E+00
 1.521102086318E+00 -1.848692472572E+00 -1.352750619741E+00 1.026229288419E+00 8.140273363191E-01 4.718659747577E-02 -1.244797774103E+00 -7.229379898662E-02 2.878431477520E+00 -1.837348978810E+00 1.223990495464E+01
 -3.975346230293E-01 5.510313280042E+00 -8.662533389582E-01 1.114887899368E+00 -7.814849609890E-01 -7.297899421974E-01 1.368530949012E+00 1.034982127847E+00 5.288337736790E-01 -2.385159804465E-01 -4.891230071712E-01 8.889226489544E+00
 -9.720843462760E-02 -1.760451844484E+00 1.571330318524E+00 -1.046605087089E+01 -7.136098557097E+00 8.897454200292E-02 -1.896999889035E+00 -2.724073143489E+00 5.593672399221E-01 3.898500082158E+00 -9.781198853657E-01 -2.379772317527E+00 1.715892791161E+01
 3.253260521497E+00 3.022124902414E+00 1.102650171021E+00 -8.256494026701E+00 -5.883318348755E+00 -3.070040185775E-01 -6.119668458091E-01 2.103589378853E+00 -8.411551356242E-01 2.275136265695E+00 -9.200314473158E+00 -7.032014914839E-01 2.483368973397E+00 2.090879646181E+01
 2.700556172275E+00 -1.324219731260E+00 -6.170750297674E-01 -5.205661922876E-01 -3.031122858299E-01 -8.215608771372E-01 -2.118745000073E+00 4.737788823465E-01 4.915572922513E-01 -3.185144522731E-01 -1.244614929977E+00 6.454656309324E-01 1.867906285805E+00 5.090574607886E+00 6.894478846365E+00
 3.233743696076E-01 3.386618340055E+00 -7.637422633816E-01 -1.940803069922E+00 4.005975076255E-01 1.569868598342E+00 1.464240496433E+00 9.510876001550E-01 -1.589789602760E+00 2.046118167142E-01 -1.552089752349E-01 -2.964093761597E-02 -7.871392648456E+00 6.840656485232E+00 3.467828101678E-02 1.939944910828E+01
 2.762091055867E+00 -3.171736913315E+00 5.528713094919E+00 4.634481294045E-01 -4.252383122959E+00 -1.293913846558E+00 1.107915498001E+00 -3.257122838354E+00 3.140851763805E+00 7.771969337214E-02 -1.028127680860E+00 -1.285824713813E+00 3.828417183734E+00 -2.337982396202E+00 -3.439921874263E-01 -2.270496056590E+00 1.707724776896E+01
 -4.312735428025E+00 2.427736246447E+00 -5.797857900375E+00 -1.167025971697E+00 1.493213265938E+00 -1.815010658225E-01 9.748242899098E-01 2.804024895697E-01 1.359924462228E+00 6.149547170104E-01 -2.956043514273E-01 1.226905618837E+00 2.193947559102E+00 -6.323533585876E-01 2.326271719139E+00 -3.793962651401E+00 -3.885882789416E+00 1.951317173355E+01
 3.720122058781E-02 2.615451723863E+00 1.208131519956E+00 1.152093187320E+00 6.965943998743E-02 8.535302788725E-01 -6.238432794194E-01 -3.938295486675E-02 -1.441511785224E+00 5.490264380257E-01 3.520156352783E-02 3.277275332047E-01 2.225473868604E+00 -7.055577066412E-01 -1.655669592742E-01 -1.954067998288E+00 8.251362742037E-01 -3.754094426919E-01 1.213468253105E+01
 1.792755823149E+00 -1.504690356350E+01 -8.307012932878E+00 2.732247298916E+00 -1.383316366895E+00 3.858635967120E-01 1.058421791904E+00 -2.844547231062E-02 1.347113572564E+00 -1.238281961853E+00 2.208479304624E+00 -6.809233089283E-02 6.535468909823E-01 -1.328732751321E+00 1.423581170022E+00 -1.062025962151E+00 -2.347737601145E-01 -4.850761923337E-01 -2.800624136385E+00 2.663773287863E+01
 3.010710574085E+00 -5.801732843821E+00 -2.164716589896E-01 -4.120492016424E-01 -3.293267661738E+00 -1.601202703787E-01 -6.910105549958E-01 -5.377223877945E-01 -3.717126514428E+00 -9.431290318755E-01 -7.611954789273E-01 -5.523477348051E-01 4.542856512865E-01 2.679374680901E+00 -1.148398439043E+00 -1.451210415124E+00 -3.189306053391E+00 -1.057628084377E+01 -1.549771229659E+00 6.826273482208E+00 1.665195693300E+01
 -2.025519601243E+00 4.704472663612E-02 -9.731036737000E-01 1.505625769749E-01 -1.172316001229E+00 -2.003659033742E-01 1.253004342975E+00 1.927212289872E+00 7.904573671220E-01 -2.501272672595E+00 2.087435726876E+00 6.589601588872E-03 3.638493827971E-01 -5.660862131511E+00 -1.343220970324E+00 -2.646934653916E+00 -5.162472273734E-01 -2.211506343544E-01 -4.532466433158E+00 9.090587638679E-01 2.350767233099E+00 1.652610377997E+01
 -1.680665861469E+00 9.809785341606E-02 3.036616268270E+00 2.071326573208E+00 3.258648267536E-01 1.484240019665E+00 -4.902898124652E-01 -8.126289242009E-01 6.708263037038E-01 2.192614094982E+00 -2.315550406583E+00 1.190262127252E+00 6.967389296732E-01 -4.469109092873E+00 -3.357042137259E+00 -2.898222473279E+00 2.154780722895E+00 -5.852594532097E-01 2.735046470828E-01 -3.960381047406E+00 -1.629149070970E+00 -2.765376187289E+00 1.473351695673E+01
 -4.706696298816E+00 -2.723959550513E-01 -2.302632083790E+00 2.571272472522E-01 3.875559320312E-02 2.278823242407E+00 -6.214860075805E-03 1.007381666265E+00 -3.164157916315E-01 -3.814386855657E-02 2.152929790802E+00 1.553219553516E+00 2.426666733058E-01 -9.515339641746E+00 -5.905952615625E+00 -6.559712709418E-01 -4.600774098364E-01 2.446322222842E-02 1.777201898852E+00 -2.971722839594E-01 -2.159382190430E+00 3.831864690546E+00 6.200737325370E+00 1.574198134724E+01
 2.576238739581E+00 1.277549182969E+00 -5.454707058529E-02 7.416134737779E-01 -5.137699970445E-01 -1.527000713512E+00 -2.963608781668E-02 -7.435388089441E-01 1.720428143661E+00 -3.065258341304E-01 3.854931459795E+00 -8.966112393335E-01 -2.824631560192E+00 -3.205184541800E-01 -1.727860699219E+00 -5.318276369708E-01 1.313565087703E-01 2.638511406206E-02 7.532320091557E-01 -1.688922494271E+00 8.556944016991E-01 -3.178505749555E+00 3.875928266693E+00 -1.869892782943E+00 1.740495167933E+01
 -8.596268179281E-01 -9.229918439107E-01 -7.101089986659E-02 -1.567665335462E+00 -1.031033339369E+00 -2.485845457873E-01 -1.455106056546E+00 -2.105503519210E+00 4.236915802398E-01 -2.154999049556E+00 4.361648692817E+00 -3.494031411358E+00 2.915028162296E+00 -3.054975233254E+00 1.188134073689E-01 -8.059257338596E-01 -2.783331780426E-01 -1.526661930464E-01 1.002861312591E+00 2.294777737272E+00 -8.219138853672E-01 3.981274444620E+00 -7.922679601868E+00 -3.032011812863E-01 1.844249168171E+00 2.619254017982E+01
 5.161051523411E-01 9.558473818550E-01 -1.496595815638E+00 1.125923320460E+00 5.707485759203E-01 -2.107468791187E+00 8.729861950937E-01 -9.905466893586E-03 3.230847652561E-01 -1.784267644650E+00 1.417467274366E+00 5.459325438831E+00 -7.768308713256E+00 8.843848131778E-01 -1.189091934323E+00 2.234597766901E+00 -2.857187568790E+00 2.284662683967E-02 -1.742661532872E-01 1.778996642323E-01 4.569545709730E-01 5.504578791626E-01 -7.749023735412E-01 -1.669613578327E+00 6.925862462896E+00 -1.741651863331E+00 1.729343900143E+01
 1.963741524893E+00 -2.482869453219E+00 1.696375569068E+00 1.850314718572E-02 7.948599629188E-01 1.729130029744E+00 -3.057738878943E+00 1.176174646515E+00 -3.180413815068E-01 -3.054264557781E+00 2.442815501517E+00 -3.154064121470E+00 1.875104183721E+00 -1.933686619637E+00 2.310035527244E+00 -2.360995428219E+00 1.055667685872E+00 8.360014240625E-01 -2.645808705199E+00 -1.294742426166E+00 -3.178851437206E-01 2.319173518933E+00 -2.246000403716E+00 -1.422412531243E+00 -7.585554460847E-01 1.680148658638E+00 -1.842735216162E+00 2.457715508834E+01
 1.195311024942E-01 2.428940024895E+00 -6.464251499057E-01 5.273282571428E-01 3.850636285770E-01 -4.513144733417E-01 4.457135023280E-01 -1.860814024976E+00 6.748168835606E-02 1.388834976692E+00 -7.855062603261E-01 1.506582499216E+00 -2.333522611926E+00 1.504180900358E+00 -2.077706783648E+00 1.228074048106E+00 -1.250928499168E+00 -1.250052958732E+00 2.356595658769E+00 -3.770603790176E-01 2.245059866377E-01 -3.208741786788E-01 4.913188189915E-01 1.138207954377E+00 3.895603339609E-01 -7.928559517290E+00 1.023837401670E+00 -9.391198998501E+00 1.706343732689E+01
 5.783752998290E-01 3.001269211190E-01 -1.749027043801E+00 -1.370888378601E+00 4.223747946701E-01 1.645176066232E-01 4.663580239039E-01 1.358041493421E+00 -2.821264182980E+00 -7.140773347700E+00 1.418234552216E+00 -4.743592694669E+00 1.303583912309E+00 -1.004332016679E+00 6.298808281931E-01 -1.446671201437E-02 -6.006070721485E-01 -1.875040959569E-02 5.570831353569E-01 1.565203702375E+00 2.060313265261E-01 1.751783206477E-01 2.107324906200E-01 7.487782917966E-01 -2.394261490374E-01 3.315940387979E+00 -3.099977532718E+00 3.500514267112E-02 7.263544352239E-01 1.909812898696E+01
 -1.183591219697E+00 -5.121154752792E-01 -2.807419309209E+00 -1.293451457173E+00 1.389605802510E+00 -4.154795942838E-01 -1.955861701430E+00 7.944829984703E-01 -2.925857393019E+00 9.339145505974E-02 7.662908488798E-02 -4.598998828879E-01 -4.734233103061E-01 -3.978153683163E-01 -6.992525269165E-02 8.427554158771E-01 -7.449968934092E-01 -3.616472121731E-01 8.344844610194E-01 -1.129060163112E-01 8.749375139295E-01 -1.921720436986E+00 4.454616912243E-01 1.287434283560E+00 2.224880417884E-02 -2.629206155726E+00 1.027408634281E+00 -2.895457749542E+00 -1.258550033339E+00 4.517383616097E+00 9.360271517721E+00
 -2.241472189925E+00 1.204038874656E+00 4.308716983870E-01 1.743992124633E-01 7.784582726153E-01 -8.813018919884E-01 2.390556977657E-01 1.871791528084E+00 -2.699231126941E-01 8.679759990001E-01 -9.127002255750E-01 -2.830833610373E+00 -1.240939840410E+00 1.151458812207E+00 -1.159838091536E+00 -3.025195950943E-01 -1.118767945445E+00 -7.942797289220E-01 1.088848441779E+00 3.039424914589E-01 2.843222661486E-01 1.613471094521E+00 -1.115902436140E+00 1.788437853478E-01 7.401334900892E-03 1.853093169275E+00 1.873403352519E+00 -4.379152347266E-03 -9.944841779110E-01 1.333540794313E+00 -1.873364770284E-01 2.600158785888E+01
 -1.003893862619E+00 -9.046488999055E-01 3.804291489821E-01 3.540653139742E-01 1.536650867354E+00 7.761093023785E-01 -5.469230728301E-01 1.955851431921E+00 -8.020759567927E+00 4.203040761783E-01 -1.233940576314E+00 2.378593749398E+00 3.573902230119E-01 1.770729489201E+00 1.059346831816E+00 7.069047477505E-01 -9.276131979178E-01 -2.308362169945E+00 1.390561606100E-01 -4.392194248079E-01 1.451334328550E+00 -2.938410461694E-01 -1.049272405146E+00 -1.201703942896E+00 -1.978290037364E+00 2.549242784666E-01 2.829148469930E-01 2.827934039843E+00 9.994948381270E-01 -5.972397576282E+00 -7.845740009556E-01 -2.235871102274E+00 2.120873397798E+01
 -3.470406789849E+00 1.539922851323E+01 3.015094605000E+00 -2.303322238426E+00 9.584557848264E-03 -3.827379783526E+00 -1.109919707231E+00 -3.110282966247E+00 -4.453505251649E+00 -3.593768293015E+00 -1.509404137553E+00 7.102200083185E+00 -3.932031547571E+00 2.976513557409E+00 7.857379832816E-02 -9.019471299531E-01 -2.177124505175E-01 -3.910705211930E+00 -2.782684907600E-01 9.378580649964E-01 -5.123231708790E-01 -9.280137894454E-01 -2.222176993924E+00 1.610824164249E-01 -7.699758073696E+00 -5.855147231478E+00 4.032124875596E+00 -1.299756970553E+01 1.070111439700E+01 2.573185340836E+00 1.471980695912E+00 -1.644551402930E+00 1.272068466683E+00 3.924192557976E+01
 7.797128886943E+00 -2.465048486146E+01 3.052402124620E-01 1.079512015255E+00 1.393157811669E+00 3.324467010835E+00 -5.359433479652E+00 -8.944191224423E+00 -2.510633212455E+00 5.224506067422E-01 -1.880620823854E+00 -7.629187500523E-01 4.043555888683E+00 -1.880685111514E+00 3.944566206224E+00 -2.151214158326E+00 2.458889529705E+00 -1.493259735818E+00 -1.867130616462E+00 -2.761547969980E+00 1.081161549917E+00 1.671403908502E+00 1.815653936477E+00 -4.204897201062E+00 -6.824142588790E+00 -2.033498838943E+00 2.801283534505E+00 9.952153239429E+00 -4.875490592130E+00 -1.194437955964E+00 6.601194844098E-01 -1.058040476112E+01 2.861471455676E+00 -1.236944665354E+01 4.831223326765E+01
 -2.235073888681E+00 -2.016393986322E+00 5.636397518910E+00 -1.064704604801E+00 -3.328595649400E-01 -3.583148343381E+00 -1.966383277796E+00 -5.254989236365E+00 -1.721004611481E+00 2.320772837309E+00 -1.161713417967E+00 -7.877659812941E+00 3.789560815105E-01 -9.794508482108E-01 -2.401564695639E+00 4.807122530050E-01 5.160820290888E-01 -3.192607271251E-01 4.196025247860E-01 -1.971676855954E+00 8.793063426632E-01 -2.246713316202E+00 1.745616781592E+00 -9.836472679366E-01 2.118302607980E+00 -5.435337881863E-01 -3.326818029094E+00 1.742557733652E+00 -1.779086931689E-01 1.606673626721E+00 9.739846993056E-02 7.220221627004E+00 -7.409623691093E+00 -7.717978395888E+00 7.848502441954E-01 1.758685839491E+01
 -1.281130752845E+01 -1.980205524505E+00 -3.678182212290E+00 -3.354787153619E+00 2.710591024663E+00 2.280954724357E+00 -3.344955735811E+00 2.048409716918E+00 -2.297481898842E-02 2.727739242490E+00 -1.049674891243E-01 -1.046168609017E+00 1.788920558375E+00 -2.500687045714E+00 7.771162082352E-01 -5.564949176008E+00 -3.933166161968E+00 5.053222450392E+00 -2.601237036043E+00 -1.089930750934E+00 -1.117209074905E+00 2.392572193287E-01 -5.781636531686E-01 1.460626422673E+00 -3.974360960245E+00 9.213937232818E-01 -6.753392392290E-01 -2.265824527001E-01 -2.760477455671E+00 -4.180452701008E-01 3.753229925292E-01 3.750458304788E-01 -5.988784275322E-01 2.845998248770E+00 1.439909368491E+00 4.517565200292E-01 3.022894830021E+01
 1.188579158757E+00 -1.199705467793E+00 -2.551662116696E+00 3.105286945590E+00 -1.582589447243E+00 -2.667357037183E+00 -4.182697872572E-01 -1.043844490596E+00 -2.465939733450E-01 -1.144941282889E+00 1.606800048220E+00 -9.731762068390E-01 3.923744246071E-01 -1.397598846917E+00 4.100685063514E-01 -5.597626969209E+00 -2.380230853462E+00 2.724955970565E+00 -1.747158993679E+00 -1.157659994863E+00 -4.959635439219E-01 -7.357907466151E-01 1.687153273343E+00 -5.349291090774E-01 5.420950769944E-01 -1.463936855112E+00 -2.989712770994E-01 1.282973719176E+00 -4.123036556721E-01 2.122838568225E-01 -6.536748875303E-01 8.392747624413E-01 1.111579153501E+00 1.814857984030E+00 -2.858971231372E-02 1.250993480313E+00 -6.856289499399E-01 1.444882781145E+01
 -7.086028577740E-01 -1.070868284289E+00 4.247252955817E-01 1.201625271129E+00 -8.626652080838E-01 -3.671979863770E+00 5.492989170403E-01 -8.061682278747E-01 -6.431561638562E-01 2.066469819121E+00 -1.163830008388E+00 -1.016522366214E+00 1.590797772844E+00 -3.739698599728E-01 1.205460535554E+00 5.199736135639E+00 4.684015531653E+00 -5.090920852764E+00 -6.582277511627E-01 -4.748948631730E-01 -3.058315798337E+00 -8.630214375197E-02 -1.260764066503E+00 -2.241422541721E-01 -3.791503844606E+00 -1.356039900059E+00 -2.177354810480E+00 -1.984907388289E-01 -8.347873274074E-01 -1.640242183634E-01 2.338128879827E-01 1.010292022997E+00 -1.489013300617E+00 2.882540698318E-01 1.306929427646E+00 2.091387984280E+00 1.045083265149E+00 -2.834203346358E+00 1.886742047165E+01
 2.464706153670E+00 -9.539968577481E-01 7.804522570196E+00 -5.230934897203E-01 -5.360482373196E-01 -1.003447283678E+00 -6.451221675319E-01 -1.996025634856E+00 -7.848466120759E-01 -1.538158967084E+00 1.794989954695E+00 -1.342072136379E+00 -1.181610887264E+00 -2.536612738877E-01 -2.201738903691E+00 -3.617578957649E-01 -4.583808293110E-01 4.246207517341E-01 -1.242282123192E+00 -4.460912211321E-01 1.040294805236E+00 8.219275074121E-01 1.627474968809E+00 3.916149636561E-01 -4.704305557943E-01 -1.385188699694E+00 2.116232119273E+00 1.116625336619E-01 -7.384296108019E-01 1.016062846705E+00 -8.906206342380E-01 8.510287440325E-02 1.424913217230E+00 2.601397495341E+00 1.783784056390E+00 2.114504371858E+00 -3.427711721506E+00 -2.883029207855E-01 -6.072749189735E+00 1.485288310776E+01
 3.990687290555E-01 3.517037164609E+00 -1.418390977275E+00 -1.935876811433E+00 -2.533553677789E+00 1.210076775312E+00 6.544498356963E-01 6.740454908093E-02 -6.301929224828E-01 1.308360687453E+00 -4.939997642618E+00 1.726420236489E+00 7.061625167601E-01 4.505380469006E+00 -8.223011762526E-01 2.048256469508E+00 -1.338546277202E+00 4.102311029078E-01 -2.532039972156E-01 -2.458877108701E+00 2.849066833368E+00 -3.685894768317E+00 2.062870864495E+00 1.341703104398E+00 1.705359284462E+00 -1.782611642014E-01 -9.383311723875E-01 1.165279306930E+00 -4.915985054058E-01 -2.367542664795E+00 4.462189176569E-01 -7.484006586825E-01 -2.371992244197E+00 -4.169710647830E+00 -9.400097844948E-01 1.066495497963E+00 7.144014160735E-01 -1.402138602527E+00 -7.577682190232E-01 -4.690371084805E+00 1.632716251807E+01
 3.873915271199E+00 -2.977031632538E+00 -5.958702870419E+00 3.329312942984E+00 -3.012765620382E-01 1.455372615345E+00 9.230062111846E-01 1.180830354866E+00 2.313467046648E+00 -2.452718313260E+00 2.655804080468E+00 1.154202330533E+00 -2.995991514978E+00 -1.609672724492E+00 -1.774944878604E+00 -8.168843031484E-01 -7.435192341254E-01 1.239576678309E+00 -2.165637270343E-01 1.049546900632E+00 2.272582109493E+00 7.543649260477E-01 -4.253027732885E-01 1.256768999364E+00 3.421807217863E+00 1.292822067546E+00 2.138842264752E+00 -1.901620651517E+00 1.565297457437E+00 1.206092853970E+00 1.093619980322E+00 -5.659642391420E-01 -5.057958217456E-01 -1.086865391850E+00 -1.889200418552E+00 -4.507736201261E+00 -3.047950777663E+00 1.490976312717E+00 -6.105575850321E+00 7.748710707139E-01 3.455476416972E+00 9.642643712600E+00
 -2.491699200555E+00 -7.947416440412E-01 -7.391982723038E+00 -9.450775748918E-01 -1.155270619753E-01 -1.390960633402E+00 -1.275265200086E+00 -6.971018364371E-01 1.743263377749E+00 -1.617158101982E+00 -2.862954032236E+00 -2.034596550013E-01 -3.295395449650E+00 2.230009483725E+00 2.623831082501E-02 2.649691158335E+00 -2.833166190256E+00 9.581155505057E-01 -2.929428222599E+00 2.080175171114E+00 -1.816144426536E+00 2.500169834243E+00 -1.053247172406E+00 -8.877895417246E-01 -2.078521056456E+00 3.604657910514E+00 1.813879457522E+00 3.567502505342E-01 -1.642933745716E+00 1.423708101057E+00 7.652681054532E-01 2.702506759046E+00 -1.697095213619E+00 2.752233362543E+00 4.568482609174E+00 -1.663886770436E-01 -8.749992745731E-01 6.630112429446E-01 -4.203459330343E-01 -4.663408512383E+00 -1.903737217925E+00 2.126197026653E+00 2.718435211578E+01
 -8.889632928850E-02 3.934500476926E+00 8.797530419525E-01 -4.045709246785E-02 -3.142293051904E+00 -1.443944187477E+00 -1.063919298194E+00 -2.681467808562E-01 -3.095112388966E-01 6.043258898118E-01 3.252725684192E+00 1.164945459921E+00 3.013777731921E+00 -3.648993641588E+00 2.699613690670E+00 -2.685518559246E-01 4.009826556266E-01 1.833382679269E+00 2.396332949684E+00 -4.604288317036E+00 -6.118761530482E-01 3.435661733384E-01 2.572814698858E-01 4.807207470828E-01 -4.351417009947E+00 -3.307879635423E+00 -6.953579895307E+00 -2.043353142381E+00 1.442701860745E-01 -3.518077902621E-01 1.339464891614E+00 2.685835679558E+00 6.611570680586E-01 -1.053268498624E+00 7.136935726025E-01 8.748253050436E-01 -5.654252691750E-01 1.122010732672E+00 -1.137786241779E+00 -4.569287617314E-01 -1.853963870358E+00 1.392404528112E+00 1.893478072414E+00 1.882918758246E+01
 -2.677021628484E+00 2.279636549715E+00 1.663037125729E+00 -7.792540980799E-01 -1.540169963882E+00 -2.445441801815E+00 -2.058356001381E-01 8.505890115598E-01 -1.044595004328E+00 5.943841155822E-01 -1.949057582598E+00 -2.544843795340E-01 -2.987133400821E-02 1.566555584940E+00 1.090333074843E-01 -6.924005474677E-01 -8.426913288203E-01 -5.325419009076E-01 -1.026478623688E-01 1.259897993271E+00 -7.156590424509E-01 -1.207702798325E+00 -2.451774012765E-01 -2.402130877518E+00 1.301674803732E+00 1.109936969093E+00 2.914440251945E+00 -4.375145627933E-01 -5.427286453524E-01 -1.387812976732E+00 -6.556652823518E-01 -1.958781178035E+00 8.660961598470E-01 1.120146714765E+00 7.868252254995E-01 2.170640351125E+00 1.625568986570E+00 8.422387024355E-01 2.170270420045E+00 -8.388350246133E-01 -1.386804975315E+00 -4.146806150909E+00 1.528254114223E+00 -4.695198007663E+00 5.912494008562E+00
 1.043796017828E+00 4.508265935217E-01 1.196697885535E+00 1.945558962707E+00 1.381502051185E+00 6.852103530687E-01 4.782090513447E-01 1.300945919235E-01 -1.652487615180E+00 9.760471984977E-01 -1.490165185116E+00 -1.159557013435E-01 1.485406205944E+00 -6.669334603816E-01 -4.399689121108E-01 -2.549426092786E+00 1.346678869019E+00 -4.742949066521E-01 -1.539823861533E+00 3.784411925045E-01 9.882173095579E-01 -4.413358117950E+00 -1.622227960517E+00 -2.045087910272E+00 -2.360127967692E+00 -2.362233404266E+00 -4.005860357338E+00 -5.649697449487E-01 7.117256823448E-01 -2.361687840043E-01 7.138266365884E-01 -2.607302679906E+00 1.631148643497E+00 -1.740786010312E+00 7.745439540320E-01 1.188143775537E-01 -6.302457758945E-01 1.366680111920E-01 1.176004272554E+00 4.812003849636E-01 9.377069318383E-01 -1.651937871640E+00 -1.333984611218E+01 -1.778436801983E+00 1.607083771823E+00 2.208707861215E+01
 -4.488654270707E-01 5.117850229411E-02 -2.293240295678E+00 3.577780456481E-01 4.590430721569E-01 9.868834433067E-01 -7.620292577183E-01 7.704373563050E-02 -4.525967121044E-01 -3.350203928501E-01 -1.300069876273E+00 -4.224579493306E-01 5.733888587346E-01 5.769596638291E-01 5.286818999354E-02 -2.287936256996E-01 3.464680112961E-01 3.673828190759E-01 -9.542949025806E-02 1.171338393491E+00 2.362348705722E-01 -3.755947516977E-01 -1.277014845705E+00 1.926287497129E+00 -2.886796570139E+00 -5.052920831859E+00 -3.516038159239E+00 1.081308175912E+00 7.387239186247E-02 -5.907021771911E-01 -1.135500557844E+00 -7.217894845520E-01 9.497112719989E-02 -4.325158577693E-01 -9.402229012890E-01 -3.581211958359E-01 1.633923965435E+00 -9.655818159454E-01 1.516399497332E+00 1.031896336605E+00 -1.497826102286E+00 -5.443321328490E-01 -7.567903940247E-01 2.342373768001E+00 -3.839720344644E-01 5.881151338000E+00 1.013916105330E+01
 -8.722917106140E-01 6.887391445632E-01 -1.613901961048E+00 2.332258867846E-01 5.961978633125E-01 6.828843863255E-01 -4.053427885390E-01 -3.099813736435E-04 9.673785914658E-01 2.082588113750E+00 -2.816758878153E+00 -9.477271782815E-01 7.874031924296E-01 2.454140189748E+00 -1.636749264924E-01 5.939420670584E-01 1.258835847419E-01 1.753792605689E+00 -1.062598419739E+00 1.951764953115E-02 1.597569872861E-01 -2.994238699601E+00 -4.761343963238E-01 -3.203868542327E+00 -4.842779978536E+00 -3.572848448852E+00 -4.210605765218E+00 3.612801890711E-01 -1.405984783421E-01 2.905293510584E-02 1.110215394588E-01 -6.422083458831E-01 -3.726063292927E-01 -4.272934042606E-01 -3.219054444411E-02 1.071729974764E+00 -5.446321063080E-01 3.640212532037E-01 2.713174846260E-01 2.224257766088E-01 -4.399035334357E-01 3.536972476269E-01 4.257174694818E+00 2.490667978160E+00 -7.205065647532E-01 1.821511577875E+00 2.005930652256E+00 7.996849149094E+00
 1.228223462810E+00 1.493208636989E+00 6.447954305022E-01 -1.484623976307E+00 -1.598509143771E+00 3.724742485717E-01 -1.139164605684E+00 8.497334107543E-02 2.026742031566E+00 1.626751588131E+00 -1.006861191468E+00 -8.892229996362E-01 1.478676025777E+00 2.550951254087E+00 2.404734798667E+00 3.507065182350E-01 -5.545643848570E-02 1.124731487861E+00 -1.130611796080E+00 -1.053034147417E+00 -1.864785115435E-01 4.784955267843E-02 -1.486043656207E+00 -3.437681817938E-01 -5.806672845078E-01 1.990298920746E+00 -2.078740531311E-01 -2.727679690330E+00 1.105575013436E+00 1.677572930014E+00 -2.685655025007E-01 -9.998585227717E-01 -2.515824749045E+00 1.369822739965E-01 -4.158535043177E+00 -3.717103366076E-01 -3.085368956159E-01 3.481924293455E-01 -2.418167646380E+00 1.399249466423E+00 -1.801841013580E-01 8.281340456208E-01 -2.348721760160E+00 2.581142681309E+00 -8.445907696005E-01 -2.637979332954E+00 -2.179137992624E+00 7.067647113410E-01 1.900420018138E+01
 -1.555331760869E+00 -1.690726725840E+00 -1.801590001230E+00 2.324188571925E+00 -1.535405232951E-02 -4.368978477012E-01 -1.025462140953E+00 3.888424840551E-01 -5.416226622075E-01 1.685266470935E+00 -3.264595820409E+00 -1.362920680841E-01 -3.616457708808E+00 4.020199366902E+00 3.790622244821E-01 2.669934296309E+00 -2.223590742459E+00 -1.960441604042E-01 -9.737009521060E-01 1.533714690826E+00 1.681678498090E+00 2.688777822417E+00 -1.300746746711E+00 -2.046677165937E+00 4.890942124165E-01 2.901010619940E+00 4.585460313463E+00 -2.633078908841E+00 -2.811426338638E+00 -3.569615117437E+00 1.432907388805E+00 -1.913555890966E+00 -3.241530596986E-01 7.131254953526E-01 -1.521114658069E-01 -1.049163194838E+00 6.612941426414E-01 6.168820051206E-01 1.014205135271E+00 -7.348833134371E-01 4.065620548872E-01 -2.486661447374E-01 1.786071957979E+00 -7.235546810076E+00 2.240713617116E+00 -3.462145876090E+00 -4.913886160986E+00 -9.768207060632E-01 5.340403652627E-01 1.351028071608E+01
 2.038644517072E+00 -3.368300719001E+00 1.049513180879E+00 -8.873607566695E-01 1.554571488532E+00 9.488714726968E-01 -2.441821908134E+00 -1.668092951396E+00 5.265759988688E-01 1.612914221824E+00 1.074105128646E+00 -3.901848612636E+00 2.231216335599E+00 9.569328485985E-02 1.223039817829E-01 -1.946733452362E+00 1.856869204094E+00 -1.108467638885E+00 6.012913730895E-02 -1.129744491943E+00 2.490440504210E-01 9.331900944435E-01 -2.264356293932E+00 3.237247679931E-01 -2.479024241958E-01 4.816060728126E+00 -8.774920925736E+00 -1.114225738930E+00 -2.251996835861E+00 -4.663403836035E+00 -2.043313297326E-01 1.087396679867E+00 -9.452000084988E-01 -1.695780936992E-01 -3.535277352269E+00 2.630211369979E+00 -2.426975364338E-02 1.405202614034E-02 -1.207440809069E+00 -1.184848994826E+00 1.916990604809E+00 8.239390931291E-01 -1.604985824747E-02 2.635996288473E+00 -2.647531158651E+00 4.515126991819E-01 1.221319264904E+00 -1.410319905919E+00 -4.935654618120E+00 1.023170304431E+00 1.754986033016E+01
 -5.362194634386E+00 3.913437120377E+00 -7.633615718230E-01 -9.821137336120E-01 -1.186120612000E-01 -3.214104675057E-01 -1.574400984205E-01 7.101176757219E-02 5.485979782466E-01 3.103584289865E+00 -1.181724158134E+00 -8.031188760210E-01 2.071745146985E-01 2.018396294214E-01 -2.588248042670E+00 1.626468559359E+00 -1.531729463658E+00 1.465447611460E+00 1.333196886652E+00 6.620261881467E-01 -2.958998439422E-01 -7.079583483335E-01 3.112527369118E+00 9.129101779284E-01 5.006729558359E+00 5.083983611377E-01 -1.926107373918E+00 1.695711059831E+00 1.122132292189E+00 -3.602334380453E+00 -4.498257443598E-01 -7.655650562957E-01 1.328431045640E+00 -7.012613090563E+00 -4.034317479132E+00 3.642677302057E+00 1.519698615876E+00 -1.729854751822E+00 1.446740355458E+00 -5.186110396434E+00 5.871944698402E+00 -1.349198745901E+00 1.559024068611E+00 -3.900071705669E+00 2.186803729124E+00 -2.756387991756E-01 -1.176401717672E+00 -7.201510772668E-01 -1.235621526957E+01 2.419950220191E+00 4.150944496209E+00 1.800907094057E+01
 1.465452510461E-01 -2.005350562582E+00 1.568836557825E+00 -1.400417091093E+00 8.393988644164E-01 -9.022624037135E-01 -7.086657691980E-01 -1.364421110363E+00 -2.968117848494E-01 -1.322464216840E+00 3.023336213431E+00 -1.006348152356E+00 -1.823969028638E-01 -4.344180492434E+00 -5.106107956555E+00 -2.649826879535E+00 9.793576604133E-01 5.319402306627E-01 -4.780105607172E-01 7.980422488555E-02 8.013512093183E-01 7.885273937944E-01 5.860174081242E-01 2.049224669411E+00 4.264759738891E+00 -1.442280440269E+00 5.026306394226E+00 9.828247455043E-01 -3.949720330762E-01 4.372277123808E-01 -1.984966323891E-01 -1.603108376635E+01 -4.524015149199E+00 1.573441694382E+00 2.797881060344E+00 1.053075829010E+00 2.815184853159E-01 -1.581292709808E+00 6.492789101276E-01 6.650958564752E+00 -2.797537187956E+00 -6.680799126067E-01 -5.792506761313E+00 -1.188091036124E+01 3.991576013701E+00 1.500745985693E+00 1.469990357071E+00 3.620747619674E-01 2.219650390939E-01 2.812515333543E+00 -3.417041455920E+00 -1.150807971958E+00 3.021802536364E+01
 -5.403693226640E-01 2.610856974237E+00 -2.252562922439E+00 1.206319686324E+00 -5.968546828403E-01 -5.888326572749E-01 1.820969454700E-01 -9.431023382777E-02 5.343047718598E-01 -8.173014710671E-01 -5.902508594832E-01 -6.905344102659E-01 -7.110496413613E-01 -6.186774821536E-01 3.085940085887E-01 7.434138648945E-01 1.083048175456E-01 3.127407611256E-01 -5.011564901662E-01 -9.974662186917E-01 -2.109965256116E-01 1.069698947853E+00 -1.406848452994E+00 2.666275059338E-01 6.976050260854E-01 1.393053305116E+00 -1.439891157454E+00 -2.944677369806E-01 8.860450590504E-01 1.095964654781E+00 6.916040377721E-01 -4.715374364542E+00 -1.165395931690E+00 -2.014058742222E+00 9.741153005915E-02 -6.198662308843E-01 5.524857813237E-01 -1.146981847817E+00 1.069194417892E+00 -2.568039343518E+00 2.507425274098E+00 1.841084402831E+00 1.964183924080E+00 1.370032538622E+00 5.259117682958E-01 1.463804360804E+00 1.763306574265E+00 1.652908013016E-02 2.664197569912E+00 -1.485385899100E-02 -2.246809757945E-01 2.318557959395E-01 6.253381449580E-01 5.326198849049E+00