#BIOSYM hessian 1
#COMMENT: Materials Studio generated
@Type: Hessian
@Units
 distance: 	A
 energy: 	Kcal/Mol
#header
@natom 19

#label
Li      Li      Li      Li      Li      Li      Li      Li      Li      Li      Li      Li      Li      Li      Li      Li      Li      Li      Li      

#element
Li Li Li Li Li Li Li Li Li Li Li Li Li Li Li Li Li Li Li 

#matrix
57        
 2.436652760913e+000
 1.766630640341e+000 4.416682368213e+000
 -1.399846561295e+000 -1.811276939045e+000 4.296465711186e+000
 7.502941105842e-001 -6.986685898536e-001 4.061108058644e-001 6.597020239186e+000
 -2.157897503223e+000 -3.353083637870e+000 1.070374579678e+000 -3.343229535602e+000 8.243019471513e+000
 3.117324240215e-001 -1.284137133238e+000 1.719635212285e+000 -1.838462849973e+000 7.674904966154e-002 1.681675172672e+001
 -2.421897342321e-002 8.026763334600e-001 2.798184614982e-001 -9.032231026168e-001 -3.484893686459e-001 -3.454074301599e-001 1.140319162935e+000
 -4.998549702726e-001 5.416837950963e-002 3.832017832663e-001 -6.390217189543e-002 -4.375408536528e-001 -1.682702230855e+000 3.018592793956e-002 1.012594535468e+000
 7.427799946092e-001 2.578939067412e-001 -1.622205270961e-001 1.156666695514e+000 -1.268305265149e+000 1.054231718814e+000 1.850053937633e-001 -4.583198609516e-002 1.071940236822e+000
 -7.078846969860e-001 -2.846476830569e-001 -2.384993791298e+000 -2.002328115567e+000 3.315398176257e+000 4.325085036404e-001 -1.192981606188e+000 -8.668287701229e-001 -8.120180026646e-001 8.670498859782e+000
 -1.313462705370e+000 -1.467551915188e+000 -2.181572266371e+000 -2.493156387699e+000 4.789860395552e+000 3.038106973002e+000 -1.321622349689e+000 -1.266112722425e+000 -1.117910993592e+000 6.063581329125e+000 1.014467330892e+001
 -9.000077565743e-001 1.334035867708e+000 -1.666913938414e+000 -1.026747776534e+000 5.703336845503e-001 -2.469289221567e+000 -1.982028981813e-001 1.299460519714e-001 -1.057771257865e+000 1.627549994008e+000 3.160239303932e+000 5.794243647231e+000
 -7.018954666649e+000 -7.637861703426e+000 -1.663772261331e+000 -5.925988985799e+000 1.711358930127e+001 1.209154339053e+000 -1.473443684528e+000 1.364647561905e+000 4.909061975440e+000 2.141205343377e+001 7.560340826975e+000 -6.541892129148e+000 4.432577205858e+002
 1.232630956783e+000 8.703221120418e-001 2.683347969326e+000 3.936702358715e+000 -5.697276505844e+000 5.441110173396e-001 5.096220543633e-001 6.819563085506e-001 6.173179663612e-001 -6.877523345927e+000 -7.195199015049e+000 -2.248678906095e+000 -5.726158775769e+001 2.386882167149e+001
 1.190970175803e+000 1.891662063397e+000 2.713810375735e+000 -2.395406948904e+000 -2.255451509583e+000 -4.281497238136e+000 8.272771818565e-001 2.223462186020e-001 -3.844522839425e+000 -7.712056425399e+000 -3.613848385990e+000 2.635162508667e+000 -2.152100155301e+002 5.515938072534e+001 1.995607029989e+002
 2.035407694967e+000 1.986000880423e+000 1.149491772999e-001 -2.349057398132e+000 -9.356520365485e-001 7.070546322933e+000 1.396677740111e-001 -1.491379616059e+000 -1.117983196462e+000 6.277175023845e-001 -1.813591902928e-001 -3.228339433073e-001 -1.196317509602e+001 3.668376785061e+000 8.125381928303e+000 1.793450821799e+001
 2.705426116606e+000 4.276990788781e-001 -1.553598757540e+000 1.668445629275e-001 3.557139495581e-002 6.119982433102e+000 2.554157066079e-001 -1.137466952647e+000 2.775767532134e+000 -1.148171391546e+000 -6.546641783400e-001 -3.551897767440e+000 8.808656156119e-002 -2.665923921594e+000 -7.692043838574e+000 -7.252582217472e+000 2.149015333671e+001
 -6.977162535906e-001 -1.574073150386e-001 -6.536022384544e-001 4.926530419324e+000 -3.342690027983e+000 -1.205498667926e+001 -8.288526163062e-001 1.068580303041e+000 -1.343906686304e+000 6.936846825477e-001 -3.109296961756e+000 1.890979458367e+000 -1.035157068241e+001 3.725894353063e+000 7.301560608486e+000 -4.226437515417e-001 -1.199729528024e+001 1.752908464359e+001
 -5.176423451941e-001 -2.028395340844e+000 7.718669664916e-001 1.506748470082e+000 1.004471937247e+000 -1.020843891845e+000 -5.285151394031e-001 -1.328439116189e-001 2.540315711912e-001 -6.621273835003e-002 1.723411966786e-001 -9.605927508527e-001 4.025006552996e+000 -6.936270671857e-001 -1.681488092232e+000 -4.355052758704e+000 2.145364971017e+000 4.448691210966e-001 3.612073507146e+000
 4.494273876696e-001 -1.058785253437e+000 -1.276525350546e-002 -2.493278504444e-001 1.695047658564e+000 -2.782069844664e+000 -2.235017017746e-001 -4.161447598453e-001 -4.007586176853e-002 1.685801649418e-001 -5.009981989149e-001 -1.071846103836e+000 1.267578838059e+001 -1.994920334078e+000 -2.293634416540e+000 -2.517331031471e+000 2.105254858586e+000 2.419126317823e-001 3.824017652937e+000 6.744896290417e+000
 3.755940492651e+000 1.361959237226e+000 -2.635285922195e+000 -6.004755298418e-002 1.327338308801e-001 -1.380043058299e+000 -3.268482284018e-001 -1.765693254800e+000 6.839243339129e-001 7.948419395198e-001 -1.460323946515e-001 -1.779046951120e+000 5.669324066092e+000 -2.417271403687e+000 -2.907829162938e+000 1.203229542102e+000 6.468036442269e+000 -1.866576793993e+000 1.084744931717e+000 4.777395089777e+000 1.066144078574e+001
 -8.310542649940e-001 3.532022003293e+000 1.831520529055e+000 -5.975746303748e+000 -1.843710934150e+000 -8.158418314581e+000 3.595241012873e+000 3.429288931345e-001 -5.665554006644e+000 -1.604090617813e+001 -6.351015522070e+000 8.943677226623e+000 -1.493545026811e+002 -1.967477011675e+001 -1.804514240184e+001 3.165088771823e+000 -5.756767041204e+000 2.990846247589e+000 -3.059258367359e+000 -4.160566327465e+000 -5.928685653145e+000 3.128339136596e+002
 -1.680068094384e+000 1.628998302267e+000 -5.123173776667e-001 3.819997495662e-001 -3.195183934402e+000 -5.332037966148e-001 3.158567380544e-001 2.437146415770e-001 -1.740624859260e+000 -3.009620814550e+000 -3.499280818846e-001 6.703701717620e+000 -3.922602263553e+001 -6.433173047356e+000 -1.256325507757e+001 1.099939700267e+000 -5.255175981394e+000 3.473129775507e+000 -2.208895172926e+000 -4.661465697109e+000 -6.451709096809e+000 8.994663347128e+001 3.732446660232e+001
 -6.557020134665e-001 1.454849776725e+000 2.306622943230e-001 -4.389490800886e-001 -1.918694173272e+000 4.565382845080e+000 6.424915162028e-001 7.287159832941e-001 1.155137862816e+000 -6.144112299746e-001 -2.173992238297e-001 -1.159356484920e-001 1.080989639588e+001 7.404467670227e-003 -8.743565772747e+000 -1.538847819986e+000 2.155957892999e+000 -5.170175200951e+000 -1.292770352936e+000 -3.256272206568e+000 -4.338537885506e+000 -3.441182154445e+000 1.624672878256e+000 7.652137794145e+000
 -5.419571358232e-001 1.518672039442e-001 -2.326829676580e-001 -2.163469982342e+000 1.142392559445e+000 1.204788196813e+000 -1.763715025422e-001 2.599146339397e-001 -2.440603411131e-001 8.168352079290e-001 1.881618358260e+000 2.478086050237e-001 2.788196716538e+001 -5.570193918562e+000 -1.706035974374e+001 8.562511295357e-001 -1.206310728946e+000 -1.984004512179e+000 -2.037582177867e+000 -1.672975352369e+000 -2.361207279881e-001 -1.970538545817e-001 3.557772287718e-001 1.868333812549e+000 5.950039185538e+000
 8.426752448942e-001 8.022155625358e-001 2.032540332821e-001 5.051912639415e-001 -3.211997440443e+000 -1.240344741348e+000 5.059219151731e-001 2.283742380023e-002 2.635635952599e-002 -1.910090961158e+000 -2.798292602349e+000 -1.361091293627e-001 -1.212115922511e+001 3.338092332401e+000 5.152473351191e+000 1.709616902795e+000 -4.112268923723e+000 2.735481131585e+000 -1.981936623154e+000 -2.171793434811e+000 5.510730207236e-001 5.477850979624e+000 2.421241302344e+000 -7.208036403708e-001 6.343909754411e-001 7.074558023717e+000
 -4.250594089782e-002 -1.947782681158e+000 -2.558522513312e+000 1.351446963373e+000 3.739407836853e+000 -4.031596250033e+000 -1.349544152506e+000 -6.721740894496e-001 -2.123076495424e-001 2.754192515817e+000 4.514528264999e+000 1.176862349581e+000 8.890726682319e+000 -1.285329710895e+000 5.281918364672e+000 -4.342504833654e+000 1.294218691605e+000 1.326064465477e+000 1.978241410256e+000 2.476225167890e+000 3.452982436188e+000 -1.580802224094e+001 -6.084138158676e+000 -3.451795478559e+000 -7.558093320968e-001 -1.789701770468e+000 9.017168420717e+000
 1.301787785841e+000 3.318150867583e+000 -2.509101966962e+000 -2.373368239756e-001 -2.598076556372e+000 -2.532804512365e+000 4.307430158327e-001 3.621020218557e-001 5.039554552766e-001 6.594500840331e-001 -5.871032083347e-001 1.355225578009e+000 2.252226706859e+000 -8.581341546753e-001 -2.770601849262e+000 -1.073246461499e+000 1.257770286940e+000 4.183238535525e-001 -1.146111646285e+000 -4.777176476046e-001 1.220583377763e+000 -3.529974002958e+000 -1.822951601134e-001 1.426406655180e+000 2.904630129951e-001 2.318510005129e-001 -1.909018241821e-001 3.396604306947e+000
 -5.774639238342e-001 -1.326703578280e+000 1.090867774262e+000 6.923788654892e-001 5.036369582834e-001 5.407041953883e-001 -1.789628304309e-001 2.618180224488e-002 -8.119190606653e-002 -4.914284459738e-001 -2.725477350280e-001 -6.761949860942e-001 3.517379754134e-001 7.402930101266e-001 7.918926220097e-002 1.240791030734e-001 -1.067025284174e+000 7.129248800194e-001 4.776327961870e-001 -4.358500281890e-002 -9.672846461139e-001 1.426699188698e-001 -7.390470787716e-002 -3.563188775851e-001 -1.528537876252e-001 1.091868054750e-001 -6.362911252495e-002 -1.248251873360e+000 7.531527356095e-001
 8.911335529190e-001 1.929851970550e+000 -1.610664317702e+000 -1.201379349419e+000 -6.244083107224e-001 -6.024892858519e-001 2.698212790575e-001 -1.328749484907e-001 6.357980076310e-002 7.320127763447e-001 4.079805982598e-001 9.997493489495e-001 8.807960742758e-001 -1.525462759729e+000 -1.294147488104e+000 3.294276744129e-001 1.328291382510e+000 -1.158216368534e+000 -7.582387067010e-001 1.845387659574e-001 1.653016628189e+000 2.111893884156e+000 6.854777029690e-001 4.484106579598e-001 4.733320978339e-001 -3.921566751791e-002 -4.285558258557e-003 1.700249704913e+000 -8.837576213234e-001 1.332338458783e+000
 -7.680145678254e-002 -5.608801334337e-001 4.271232863021e-001 1.038094788272e-002 4.104687827671e-001 1.421050596477e+000 -9.718249357784e-002 -1.987605667050e-001 -3.745208419963e-002 -4.271364492044e-002 3.367202530759e-001 -3.841772880933e-001 -2.322313949866e+000 2.171625211650e-001 5.111730497623e-001 9.859816487688e-001 5.933161334866e-002 -6.389078080662e-001 -1.913809208848e-002 -3.437561311879e-001 -2.887531306272e-001 1.034030004408e+000 6.339431244014e-002 -5.321938027878e-002 -8.422932741510e-002 -1.114371831485e-001 -2.077830535095e-001 -7.081631289740e-001 2.517842016371e-001 -3.419283644633e-001 6.684542876941e-001
 -4.962218892315e-001 -8.619274180619e-001 5.687430564319e-001 -1.558972367150e-001 9.087542306388e-001 4.716401725737e-001 -8.621156450242e-002 -3.867762550764e-003 -8.997326855333e-002 1.242045918498e-001 3.144691284202e-001 -2.683225658675e-001 3.815835147320e+000 -4.301936166295e-001 -1.061222264328e+000 -2.929099053476e-001 -1.436032433205e-001 -3.239123724033e-001 3.409844081673e-001 2.296678374103e-001 -4.051297847768e-001 -9.184745471027e-001 -3.762299771073e-001 -1.231244642061e-001 1.975791742522e-001 -2.756347712154e-001 1.904781223168e-001 -7.126211957804e-001 2.653797430119e-001 -3.680466254780e-001 2.030864509039e-002 2.879894271843e-001
 -1.981976018287e-001 -3.940538500030e-001 2.489868457847e-001 4.400589976763e-001 -1.612073520370e-002 4.661272145058e-002 -1.081188850982e-001 5.969607839306e-002 2.968202270365e-002 1.688063713965e-001 7.867457742631e-003 -2.362859787370e-001 1.698049885857e+000 1.206412114212e-001 -1.040651293971e+000 2.571473570897e-002 -6.672050994555e-001 6.820881932818e-001 6.312825084059e-002 -2.963280530870e-001 -5.607492302456e-001 -2.288263770508e+000 -5.825842954822e-001 5.242204638871e-002 -1.300350283971e-002 6.183932124468e-002 -6.303874741195e-003 -2.726752179030e-001 2.087728714085e-001 -3.264312805069e-001 2.843226073565e-001 3.662292844317e-002 4.703226269523e-001
 8.101809422767e-002 1.173081657059e-001 -2.872049415564e-001 -5.725800093017e-002 -1.410863570140e-001 1.759051006286e-001 1.707355597216e-002 -8.124968825855e-002 -3.752491190725e-002 -9.213700275655e-003 3.702280495521e-001 2.868873353392e-001 1.200974580200e+000 -3.077551183334e+000 -8.817352275353e+000 -2.223187734807e-001 6.824388596890e-001 -3.906394295008e-001 -1.980832382390e-002 -3.624205584856e-002 2.529533628760e-001 6.883615245670e+000 2.640722923700e+000 2.196093346798e-002 5.129765210657e-001 -6.516041857113e-002 -8.630044144704e-001 1.891299313230e-001 -1.114807615134e-001 1.925592618463e-001 5.055477919985e-003 -2.894046148222e-002 -4.780768863452e-002 1.794515568548e+000
 -7.373546171364e-002 -4.806855413378e-001 4.023986808986e-001 2.277890609996e-001 1.756467692946e-001 -2.546595405469e-001 -9.697039058772e-002 -9.670336985269e-002 -2.979825958893e-001 -3.185141142319e-001 -1.832962005409e-001 -8.454227941864e-002 -4.002705544829e+000 4.888096959882e-001 1.470471456981e+000 9.554559496005e-001 -1.180356580564e+000 1.050633933013e+000 1.264441411203e-001 2.673315959824e-001 1.110672635499e-001 1.744466667968e+000 4.209918474506e-001 -1.011255893473e+000 -2.594745131961e-001 3.484742941941e-001 -1.561477911569e-001 -6.201599376530e-001 2.332505259061e-001 -3.193720366402e-001 1.200130820394e-001 1.663257800673e-002 7.649738250240e-002 1.762593100514e-002 7.638585670338e-001
 3.018981234182e-001 1.566674128076e-001 1.185403315551e-001 -6.155289725371e-002 -3.317366824520e-001 6.469076836557e-001 1.004110480680e-001 -2.385013599911e-002 1.485735438936e-001 -3.822766530862e-001 -4.519817962819e-001 -4.195050952211e-001 1.843296119161e+000 3.210697762552e-001 -1.224884434893e+000 8.530039495082e-001 4.259144393394e-001 -5.161935266516e-001 -1.672229749504e-001 1.577472350314e-001 5.242689222456e-001 -6.147066744082e+000 -1.978330915157e+000 -4.328424123598e-002 1.875426202334e-001 9.709601350418e-002 -5.666686920032e-001 1.042059946124e-001 -4.746798436805e-002 2.221263780322e-002 -1.614698665595e-002 1.486606482961e-002 -2.052967364526e-002 2.535500789511e-001 2.223151489648e-001 1.159524832851e+000
 1.700379417922e+000 -3.461237912054e+000 1.757740625343e+000 5.407931911497e+000 -7.790568256637e-001 6.684854433761e+000 -2.357837920282e+000 1.221732379793e+000 3.852536370677e+000 8.742603776444e+000 2.611291249974e+000 -9.986841617002e+000 -1.231427012721e+001 5.252726239937e+001 1.305850547915e+002 -3.543225999157e+000 9.196657978834e+000 -2.240904751735e+000 3.313142695860e+000 2.599282477127e+000 3.245732962808e+000 -3.803854949843e+002 -1.165275364387e+002 -3.279016310446e+000 -1.411954432880e+001 -2.227542738791e+000 1.447335331013e+001 2.855794001133e+000 -4.052389928772e-001 -4.096748570982e+000 -7.845035184334e-001 6.787946269798e-002 2.083270937739e+000 -8.589422941491e+000 7.206744036529e-001 1.014557239929e+001 6.108020255757e+002
 -7.079453471150e-001 -1.045778517994e+000 -1.060301602102e+000 2.747722666514e+000 5.651104322960e-001 -2.159567928075e+000 -1.310808776208e+000 6.919823142932e-001 1.369989666113e+000 8.425781871206e+000 5.764385813827e-001 -2.679878732890e+000 1.225952617397e+002 -7.926602390366e+000 -5.020276019321e+001 4.700872072826e+000 -9.817092585281e+000 8.003792010616e+000 -6.953485874962e-001 1.141517456766e+000 2.349314250727e-001 -9.089281973582e+001 -2.460067842681e+001 4.812438111137e-001 5.921832669142e+000 -1.848951069088e+000 2.556500243707e+000 1.705639781297e+000 6.052345830900e-001 -9.785642568436e-001 -5.332335718687e-001 5.288150600825e-001 1.607942671154e+000 -7.728181635739e-001 -4.021464002702e-001 1.911745609959e+000 6.704923993415e+001 5.920170641774e+001
 -2.221185327087e+000 -2.582660125669e+000 -3.072589030609e+000 -1.012591992001e+000 7.340579013494e+000 -1.700159981005e+000 -3.110628936036e-001 2.812189228512e-001 3.596986725218e+000 9.826355480791e+000 3.010438049981e+000 -3.210502427506e+000 2.724741148989e+002 -6.373156483699e+001 -2.177410004611e+002 -1.067702380834e+001 6.105898571653e+000 -6.495733601443e+000 2.358374454620e+000 5.945818043380e+000 5.220441540394e+000 3.720925507058e+001 1.358137313405e+001 7.199866859135e+000 2.091789544254e+001 -7.331723124429e+000 -1.705909596896e+000 2.675790248937e+000 -6.471704142696e-002 2.021039632711e+000 -9.718943553783e-001 1.636712351081e+000 8.421420619451e-001 7.291911538136e+000 -2.568017868261e+000 -9.074944121591e-001 -1.985985145926e+002 5.747967625833e+001 2.632506334580e+002
 -1.249394158639e+000 -1.073364956912e+000 2.130139650940e+000 9.349710257915e-001 -8.365059264119e-001 2.430549508480e+000 7.553022682364e-002 5.278454696893e-002 -6.800214063353e-001 -3.589327569629e+000 -1.869101905686e+000 2.346395261214e+000 -1.368207872105e+001 1.779366145919e+000 6.777159973974e-001 3.214123384003e+000 -3.613197767316e+000 9.597850822331e-001 -7.898643068496e-001 -1.661499808559e+000 -3.419886731341e+000 2.244188007447e+001 1.263408685451e+001 -6.302724028975e-001 -3.425714085448e-001 1.755659434554e+000 -3.097562702980e+000 -2.125119248163e+000 7.997753866929e-001 -9.622082794172e-001 3.733742327706e-001 2.866025716525e-001 -1.044633692580e-001 6.639862374887e-001 7.745868933432e-001 -4.888830186117e-003 -2.459979413481e+001 -7.025617596031e+000 -3.229476103145e+000 9.671951051507e+000
 -4.121710361682e-001 -6.249668036635e-002 -1.920305418787e-001 -2.193877199421e+000 2.233893738321e+000 -1.767583313702e-001 9.929709087667e-002 7.834903470182e-002 -2.651778107957e-001 2.658676873181e+000 2.869606872634e+000 -1.095425745890e+000 2.590668276584e+000 -2.725834357968e+000 3.270875473082e-001 -1.308732850431e+000 7.604162103791e-003 -1.666286966676e+000 1.502230098910e-001 -2.253461534247e-001 -6.192317692721e-001 1.408605569295e+000 -4.418669148396e+000 1.139158393784e+000 8.881968771451e-001 -1.570712927159e+000 8.736737611318e-001 1.766898649616e-001 -1.055408998900e-001 1.918422930357e-001 1.719185523720e-001 5.555238557912e-002 1.741976495042e-001 -4.331957630631e-001 -4.848570382920e-001 -6.011011624852e-001 -4.941999399284e+000 -8.537427525169e-001 3.682864232333e+000 -5.022562814503e+000 7.118054163039e+000
 -2.074174132444e+000 -2.487292492451e+000 1.810751278576e+000 -6.963718562448e-001 2.023221245978e+000 2.774842391614e+000 -3.576892705807e-001 3.237232132739e-001 -4.967335490449e-001 2.507709571388e+000 1.402477964740e+000 -2.357802909405e+000 1.088336370855e+001 -1.353642603584e-001 -1.455896883295e+000 1.126553783399e+000 -3.260012236780e+000 3.696453893754e-001 1.358161775628e-001 -1.251759771524e+000 -4.058767194723e+000 -1.128173719561e+001 -2.949818220880e+000 1.064216465284e+000 5.152461229977e-001 -1.033384457620e+000 -1.069630015167e+000 -2.081413748669e+000 9.749259168338e-001 -1.522164076032e+000 4.963470897289e-001 6.240328864728e-001 5.324938212472e-001 -3.592147472836e-001 1.729485747420e-001 -3.876773929541e-002 1.234273815178e+001 5.935882819985e+000 1.164501477113e+000 -7.174262179375e-001 2.062237812588e+000 5.829090071930e+000
 3.098899679561e-001 5.938380864658e-001 9.334851342850e-001 2.772816837790e-002 -1.381963235106e+000 -1.483308563403e+000 7.804575788463e-001 5.720572636287e-001 6.296957804238e-003 -3.709870909587e+000 -3.242268911502e+000 -6.044653367598e-001 -1.829746559900e+001 3.640662062125e+000 8.506863434298e+000 -6.151373913569e-001 5.024196553031e-001 1.482739845265e-001 -5.547324176077e-002 1.399164044516e-001 -3.230497413758e-001 1.309207491493e+001 2.375396015442e+000 -1.188468179641e-001 -9.904148919115e-001 1.041249606499e+000 -1.682592692029e+000 2.068095697725e-003 -3.025197950310e-002 -2.295305799352e-002 -1.787886391118e-001 -1.625667511383e-001 -3.554715805147e-001 -5.101014560108e-002 1.358524760793e-001 4.351200708905e-003 -6.266328877605e+000 -7.146364359781e+000 -9.456229222037e+000 9.416898662154e-001 -7.346719572997e-001 -1.160203388116e+000 3.014507310823e+000
 6.309417413892e-001 8.793486229685e-001 1.849762508491e-001 4.953234069146e-001 -1.628399114505e+000 -9.672433978092e-001 5.164350953597e-001 3.733642238500e-001 3.730828617442e-001 -2.270363513863e+000 -2.431951738402e+000 -6.430053815759e-001 -7.735327485260e+000 1.541179603790e+000 1.319461088990e+000 -7.022594044763e-001 1.241441628234e+000 -5.544437366336e-002 -1.633406154877e-001 -5.374069340719e-002 2.921105857900e-001 5.013859817712e+000 8.152992823760e-001 3.298652452503e-001 -5.411220917720e-001 7.491469905701e-001 -1.219392538780e+000 5.943349968152e-001 -2.258418715270e-001 2.456401212239e-001 -1.645162263578e-001 -2.258267504789e-001 -1.343974346138e-001 1.733453111600e-001 -1.552230513976e-001 1.311764945032e-001 -1.232050371915e+000 -2.713075104105e+000 -2.397565518347e+000 2.262270489703e-001 -6.998427219875e-001 -1.019092895640e+000 1.310991697319e+000 1.399193002787e+000
 2.949302428741e-001 9.379595739916e-001 8.456949953900e-001 7.351516986193e-001 -2.349029207053e+000 -1.738949244247e+000 7.963704531438e-001 8.547656749627e-001 2.819876384675e-001 -3.382573695045e+000 -3.786972549987e+000 -8.075990688400e-001 -1.091662859192e+001 3.399894784484e+000 3.250033179290e+000 -3.464619434621e-001 -5.907624595122e-001 1.326036386092e+000 -5.550501329004e-001 -7.737681864364e-001 -1.242236475222e+000 6.749006149778e+000 1.438017898388e+000 6.432920464732e-001 -6.237529716081e-001 1.322273246208e+000 -2.310436953261e+000 5.475296194201e-001 9.165578660251e-002 -1.788345230838e-001 -3.019617428611e-001 -2.509710703371e-001 -2.886634707166e-001 5.874186528248e-002 3.902787609902e-002 1.832546353024e-001 -1.135323880111e+000 -2.367123508451e+000 -4.794557162977e+000 9.013581443147e-001 -8.464907560895e-001 -5.743313351145e-001 1.747236923906e+000 1.340480112728e+000 3.008669827156e+000
 -2.895076964065e-001 3.259136439507e-002 2.960437555283e-001 -2.126416037469e-001 -1.432286653727e-002 3.129614489128e-001 1.020219727593e-001 1.814596429140e-001 -2.127302719493e-002 -1.517440261817e-001 -1.133293645233e-001 5.789484127762e-002 2.927621373261e-001 7.318712576518e-001 1.529334307031e+000 8.218313801325e-002 -4.175023028957e-001 -2.216201786902e-001 -1.994948345638e-001 -3.466756612388e-001 -8.436261046576e-001 -2.293990044123e+000 -1.869947128686e-001 4.824258184848e-001 4.266547480606e-002 -1.098973281671e-001 -3.759583944541e-001 -5.245021188284e-003 4.332502569630e-002 -5.517897361717e-002 -3.431736688061e-001 1.117918114807e-001 -3.895181237371e-002 -1.568321400450e-001 -5.560165041015e-002 1.026324479549e-001 3.900889780843e+000 3.403937744495e-001 -2.055400233158e+000 2.084585703410e-001 -2.287370099545e-001 3.022815711323e-001 -9.938244293098e-002 1.028546605626e-001 3.995054044210e-001 7.871650796920e-001
 2.338754583781e-001 3.081925691201e-001 6.037069232898e-002 7.583619062662e-002 -4.675680945016e-001 -2.959621873766e-001 1.946008321471e-001 1.477513948843e-001 2.252127974745e-001 -6.733654325985e-001 -9.464438358575e-001 -3.890528822047e-001 2.093095428663e+000 5.525119238092e-001 -4.245806034935e-001 -2.013038788826e-001 4.756687808058e-001 -1.823127067531e-001 -2.963543109694e-002 2.204300698836e-001 3.171246468109e-001 -1.551081670366e+000 -8.646297254233e-001 2.171792828865e-001 7.972791202605e-002 1.397001738307e-001 -2.713548212263e-001 3.081322048113e-001 -1.744758185711e-001 7.869066908762e-002 -8.611432846642e-003 -6.841121797391e-002 -2.147334824107e-002 -1.168519440576e-001 -1.042617408946e-001 1.290414353698e-001 1.633097453226e+000 5.515107952443e-001 8.904534708119e-001 -2.688642810460e-001 -2.300169277614e-001 -4.188661045548e-001 3.936818971510e-001 2.159106467638e-001 2.021808077734e-001 -1.063805782300e-001 5.844038971473e-001
 1.228595046289e-002 2.493184189338e-001 -5.803100946023e-001 -7.855354883230e-002 4.043810584149e-002 -7.356350120025e-001 -7.206146803421e-002 2.906283178754e-003 -3.894016338643e-002 6.052552812736e-001 6.369404642668e-001 5.507967854289e-001 1.334276788315e+000 -1.245141903543e+000 -2.018601857826e+000 -8.853378200586e-001 3.445475887747e-001 2.465657586379e-001 8.023378269026e-002 1.302788522709e-001 2.706852181261e-001 2.439251663933e-001 3.315765881212e-001 -3.280029094087e-002 1.481431057802e-001 -2.290457430024e-001 4.022963101799e-001 4.756350039302e-001 -2.216091207810e-001 2.599547952060e-001 -1.682509252740e-001 -5.654085364064e-002 -3.885489479799e-002 1.904149629881e-001 -6.280454528277e-002 -7.071393853131e-002 -7.238668402094e-001 1.745991509045e-001 1.906273596625e+000 -5.482929275237e-001 5.092352051711e-002 -5.162684134059e-001 3.925904662861e-002 -2.039929263345e-001 -5.839921081390e-001 -1.867585594581e-001 1.263696393003e-001 9.173594889452e-001
 -5.270569796595e-001 -6.129315314318e-001 5.870632826777e-001 5.166878291320e-001 -7.974752439491e-003 -1.161148280131e+000 -1.291579069985e-001 1.296808766587e-001 -5.119286155366e-001 -3.473243392078e-001 -3.901466707125e-001 3.298833543413e-001 -3.580136027539e+000 7.597304860976e-001 1.711524509619e+000 9.423412053698e-001 -3.079081205918e+000 2.659478342377e+000 4.092757015445e-002 -6.543052105547e-002 -9.952313549833e-001 4.806663225814e+000 2.043936020236e+000 -9.769494283296e-001 -1.644208772045e-001 5.506563712002e-001 -3.267944747793e-001 -7.550242865037e-001 3.901590787950e-001 -5.225204218277e-001 6.711467434235e-002 1.001672270339e-001 1.231712617709e-001 -2.532087742182e-001 5.559247690929e-001 -4.168831390130e-002 -4.997083345929e+000 2.868557819583e-002 -1.776699533928e+000 1.382978017719e+000 -5.209134596210e-001 5.038539771413e-001 1.906992741930e-001 -1.078854871874e-001 2.361465477050e-001 2.917368225738e-002 -1.034383368992e-001 -1.056841332963e-001 1.042335387461e+000
 -1.296416302773e-001 6.381109110909e-002 -2.946267147631e-002 -3.073316602529e-001 1.651263941198e-001 -7.294823565245e-001 8.207213084463e-002 1.002446763427e-001 -2.114379998269e-001 -1.725080229184e-001 -4.284833121121e-003 3.605789381019e-001 -3.341432530533e+000 -3.950337596853e-002 1.628160451456e+000 -3.153617102665e-001 -2.910944265302e-001 3.078460923745e-001 1.291027988155e-002 1.310606444879e-001 -1.008563443576e-001 3.176650051259e+000 8.979571190018e-001 -3.144175135877e-001 -1.172380152563e-001 4.504970583274e-002 -1.769501976955e-002 4.198811514316e-002 -5.722069013683e-002 7.751810484110e-002 -5.917540343342e-002 -1.638688660119e-002 -6.446147251031e-002 2.470987800936e-001 -5.702037259029e-002 -8.919992816076e-002 -1.776281854980e+000 -1.700357537341e+000 -1.822713266427e+000 2.523103603781e-001 -7.453164389929e-002 -2.020557773542e-001 2.695937238711e-001 9.107247405190e-002 1.339076633049e-001 8.974617532503e-003 -1.023218028263e-001 6.455199826374e-002 -8.180489807134e-002 4.983723237967e-001
 2.321360723243e-001 3.859112105652e-001 -6.164424711601e-001 -4.181376726528e-001 2.280509018653e-001 -2.385442232047e+000 1.808812841385e-002 4.323449271513e-003 -3.640131931481e-001 4.803976116999e-001 -6.224198435584e-002 4.859853427983e-001 1.799001521200e+000 -9.606383512113e-001 -1.361722744971e-001 1.738810064027e-001 -1.226867041839e+000 1.739171939334e+000 -1.703912282051e-003 9.628315203602e-001 1.301423989969e+000 1.284569404719e+000 -1.176072483460e-001 -1.402274189181e+000 1.613447331493e-001 3.539810552620e-001 6.161722564326e-001 4.345293021876e-001 -2.124992425503e-001 3.609207139362e-001 -2.307581682157e-001 -9.087600767450e-002 -9.184513314663e-002 1.307822094207e-001 1.047955080516e-001 2.059168933317e-003 -1.779082416594e+000 8.064928381008e-001 1.214727084026e+000 -3.807787240435e-001 -1.288938228256e-001 -6.219708524108e-001 1.989831715200e-002 -2.113565041287e-003 -5.197423902783e-002 -1.150990365263e-001 3.626904233756e-002 1.420552306635e-001 1.297815880946e-001 3.138257416540e-001 8.056628644563e-001
 -1.803775145060e+000 -1.788170623998e+000 5.413693213161e-001 1.387870778830e-001 1.805713784956e+000 -1.494055331015e+000 -2.130262477350e-001 5.813845703248e-001 -9.800168222565e-002 7.096035852203e-001 1.723077903314e+000 5.998946828297e-001 1.433489860867e+000 -2.042225626297e+000 -1.408514558088e+000 -6.390329197492e+000 1.426440063343e+000 -1.414986578097e-001 1.549082710708e+000 5.819734057868e-002 -2.428168105699e+000 5.542706003318e-001 5.647386176266e-001 7.817833074807e-001 -2.776761364491e-001 -1.156517780553e+000 1.514876482728e+000 -5.627179137111e-001 2.820369199169e-001 -6.318676426729e-001 -9.538828220152e-002 3.490988102175e-001 1.387274999159e-001 1.349304507264e-001 -2.226305645797e-001 -4.972674888745e-001 1.486137248175e+000 -2.779443464665e+000 1.571403215739e+000 -6.822129013106e-001 1.232686807912e+000 9.877416598780e-001 -1.599650544616e-001 -2.540509454208e-001 -3.198612791105e-001 7.667173874258e-002 -2.118097493025e-001 3.042709637394e-001 -1.093674693353e-001 1.717592254771e-001 -3.277075885037e-001 3.257229435311e+000
 -3.821845566389e-001 -2.784968966549e-001 6.901253991338e-001 -1.283991146261e-001 -1.491069421600e-002 6.767391816151e-001 1.496258500258e-001 1.384328889884e-001 -1.201231313369e-001 -1.064388005561e+000 -5.248161308134e-001 8.718456762931e-002 -5.455131021661e+000 1.226527198270e+000 3.523028286831e+000 1.929298091496e-001 -2.740192328525e-001 -4.419370838067e-001 -3.471819212008e-002 -2.777974737282e-001 -1.024392615209e+000 3.976795025808e+000 1.593931091631e+000 3.107885483385e-001 -1.924031982006e-001 7.906002082488e-002 -6.980246140406e-001 -5.141006079591e-001 1.702875944772e-001 -2.441518574891e-001 8.119684188133e-002 8.493626253999e-002 -5.049661063440e-002 -7.390729212487e-002 5.193812720426e-002 1.757194523872e-002 -2.172123437766e+000 -2.692948465461e+000 -4.116439308258e+000 1.299738349838e+000 -4.990358371064e-001 1.276042970186e-001 5.500296112613e-001 1.509604181467e-001 3.450834487529e-001 1.300060487399e-001 3.800206263169e-004 -1.508903239194e-001 1.767180867655e-001 6.974259053713e-002 -2.010910124059e-001 1.317212149900e-001 6.381166359714e-001