#BIOSYM hessian 1
@Type: Hessian Update
@Units
 distance: 	A
 energy: 	Kcal/Mol
#header
@natom 19

#label
L1      L2      L3      L4      L5      L6      L7      L8      L9      L10     L11     L12     L13     L14     L15     L16     L17     L18     L19

#element
Li Li Li Li Li Li Li Li Li Li Li Li Li Li Li Li Li Li Li

#matrix
57
 5.462323135580E+02
 1.341358066101E+01 5.145279058064E+02
 -1.242818889287E+02 -2.272718145388E+01 5.670010696861E+03
 5.318321400150E+00 -4.994004258310E+00 1.034358767897E+01 2.497943362406E+02
 2.498217051711E+00 2.921585526067E+00 4.154027997568E+01 2.356090411142E+01 1.962748945536E+02
 2.032194827196E+01 5.727212689998E+01 -2.387424300702E+03 1.668784341459E+01 -3.545201534195E+01 2.186257098170E+03
 -1.507632271782E+00 2.613026329536E+01 2.353325912410E+02 1.494238314615E+01 5.192266900635E+01 8.568295873268E+01 7.027754585605E+02
 2.498745795428E+01 -9.190143890142E+01 4.619577087808E+01 2.830244105152E+01 -3.950254581521E+01 -8.761431153013E+00 2.982067603013E+02 4.081165084478E+02
 2.168590736111E-01 2.926959824996E+01 -3.133906445880E+02 -1.758418781003E+01 -8.339464427935E+01 -1.689830346810E+02 -9.454443936350E+02 -6.111732857969E+02 1.805024410451E+03
 -9.886290234530E+01 -6.924486739944E+01 -7.518716196601E+01 -4.568925402737E+01 -6.824139608131E+01 1.178676382920E+01 -9.005050040971E+01 -2.520525220738E+01 6.709477875184E+01 5.251913743892E+02
 -7.329896929418E+01 -5.416294096901E+01 -3.978284886730E+01 -9.533102303494E+01 -3.841205979223E+01 -1.158511389870E+02 3.999758767874E+01 4.099668847186E+01 -7.627850654020E+01 -1.835682166955E+02 4.827630691486E+02
 5.438257594766E+01 2.001367670215E+01 -4.204267313456E+01 -1.327683995100E+02 -2.057201472367E+01 -2.263971325276E+02 4.020801372916E+01 7.133638468775E+01 -6.585819446066E+01 -7.100122177969E+02 6.896856305188E+02 1.871814247791E+03
 -1.052109682079E+02 5.972353205339E+01 -1.373078951289E+02 -6.277980370685E+01 6.634337516159E+01 -8.973312788119E+01 -1.131079917834E+01 1.733197436265E+01 -1.816125926249E+01 2.172705513529E+01 -8.325513949275E-01 -3.013341149500E+01 3.803187596236E+02
 7.123239495714E+01 -3.787911801577E+01 -8.910300334431E+01 2.868512008202E+01 7.266323744764E+00 -3.078831393450E+01 2.750696218824E+01 4.262979540015E+01 -6.691686199215E+01 7.778684012839E+01 -7.779130622295E+01 -1.268078145183E+02 2.060064022387E+02 6.912255772431E+02
 4.985558680366E+01 -3.680090290819E+01 -2.102679594002E+02 -5.941967615241E+01 9.086834043766E+01 -1.717539640411E+02 5.477091854504E+01 7.308753943201E+01 -1.066206869916E+02 8.323235035370E+01 -3.443830170388E+01 -9.572596040589E+01 4.463698807910E+02 9.900303918358E+02 1.957463380063E+03
 -1.057682743607E+01 -3.546425356618E+01 1.882411909167E+01 1.772431422155E+01 5.807802158181E+00 -7.687731537799E+01 5.069760012722E-01 6.519850841825E+01 -7.300435608254E+01 8.860532823263E+01 4.547087118538E+00 -9.918469970783E+01 -1.735460137425E+01 -1.006642634253E+02 -1.207945929765E+02 8.293604467698E+02
 -1.880978491305E+01 -1.391572235898E+02 5.909221284125E+01 -2.542940410139E+01 -7.143459358762E+01 5.949861123867E+01 1.771158615207E+01 -7.109397606432E+00 3.334251836485E+00 2.943989307105E+00 -3.257172449696E+01 -2.777687667081E+01 -2.703764177828E+01 -5.498491649623E+00 2.086964335662E-01 -1.113345987258E+02 2.928576407228E+02
 -4.105777578164E+00 -6.746883898263E+01 -1.264413290122E+02 4.954427417153E+01 7.318481221108E+01 -1.426900012119E+02 4.181832246768E+01 8.618211623450E+01 -8.341667299092E+01 9.814914167996E+01 -2.705909908523E+01 -9.596693069353E+01 1.525990286946E+01 -8.304314188446E+01 -8.065820512210E+01 1.009856927234E+03 -1.200222112329E+02 1.701139827110E+03
 -1.322479018144E+02 -7.308803801697E-01 3.164238793944E+01 -1.055734412738E+02 -1.855831380185E+01 8.299008257470E+01 2.724145782450E+00 -1.397663790144E+01 -5.579898355346E+00 2.541906493716E+01 -2.431621288619E+01 -4.667303430420E+01 -1.599670550670E+01 -3.345033266383E+01 -5.448893271065E+01 -7.461355582930E+01 3.647447384614E+01 -6.190867846793E+01 2.955485333730E+02
 -1.517117980022E+00 6.314347036794E+00 1.429922232017E+02 -3.624322395565E+01 2.941426762738E+01 9.285505356966E+01 -9.083754153010E+01 -5.528534059148E+01 6.935573068641E+01 -2.767247243282E+01 1.122697118396E+01 6.411959608625E+01 3.652174412367E+00 3.988440961749E+01 6.962887528981E+01 8.507821601408E+01 -4.251129205831E+01 1.002435465773E+02 -9.331204474097E+01 7.415271113080E+02
 -3.977907673570E+01 -2.205164074051E+01 -2.786510199134E+02 1.081525632199E+02 -3.819106638923E+01 -1.952214748312E+02 1.159679350639E+02 4.434816015024E+01 -9.360036882193E+01 5.634220714827E+01 -4.137520398634E+01 -1.016105924900E+02 -2.004185357133E+01 -6.779026148763E+01 -1.014613411215E+02 -5.390146396170E+01 6.987099707612E+00 -4.591231497052E+01 1.982352929423E+02 -1.018775372298E+03 1.881875390122E+03
 1.432230406910E+01 -5.350269152889E+00 -6.856200566564E+01 -5.015230091974E+01 -1.496235829057E+00 9.228823612031E+00 2.374307183714E+01 -1.886027284205E+01 -2.601227358328E+01 -4.091777369208E+02 3.622708598166E+02 8.926280571426E+02 -5.177727669151E+01 -2.408880711585E+01 5.177744819835E+00 2.184781111302E+01 1.782158982906E+01 3.212942823187E+01 2.154675065268E+01 -7.316245068853E+00 7.023070280694E+00 1.165885586854E+03
 -3.007696588964E+01 -6.727762306260E+01 -2.032277079270E+02 3.284203982240E+01 2.583026088617E+00 9.328263064973E+01 -2.792861849018E+01 -3.421793865729E+01 4.698685870763E+01 2.111757609925E+02 -2.333336624592E+02 -5.430489807168E+02 1.537257612803E+01 4.945605239001E+01 5.049047429905E+01 4.900497589536E+01 1.345659428646E+01 8.207749352882E+01 3.222632419908E+01 -2.190236861644E+01 4.234771508172E+01 -2.712002400465E+02 3.559534167480E+02
 -6.471127286428E+01 -4.816219163089E+01 -6.015236786838E+01 1.083159480358E+02 -1.706763403870E+01 6.868342959079E+01 -1.378504634089E+02 1.335800663759E+01 -5.758529663186E+01 8.895587467356E+02 -8.000882765452E+02 -1.985413041822E+03 7.731730284516E+01 3.757258960113E+01 -4.069164678748E+01 5.735154001814E-01 -1.056698205178E+01 4.293628165750E+00 -2.341519996753E+01 -2.342082667092E+00 2.182413954397E+01 -1.941627984031E+03 6.066051505558E+02 4.112204646488E+03
 -7.811496929079E+01 -9.418652198105E+00 -5.409613285832E+01 7.905415908389E+00 1.644546432072E+00 5.047737310156E+01 -2.764920168135E+01 -2.349280242747E+01 3.830240205767E+01 -3.761832902352E+01 1.538051101411E+01 4.644939325551E+01 -7.830317300248E+01 -1.450240538203E+02 -2.639969712657E+02 3.263607706273E+01 -4.435904595896E+00 6.124283453819E+01 3.898315445288E+01 -2.024144582393E+01 2.590097977980E+01 2.264089924663E+00 -1.707290342179E+01 -5.051983588026E-01 2.492643574689E+02
 -2.483945561526E+01 2.205385212685E+01 -2.869203127688E+01 1.975393190114E+01 -4.895119435078E+01 8.756512625302E+00 3.934978457237E-01 1.227937464991E+00 2.820063078323E+00 -1.042631020148E+01 2.630809688110E+01 3.487510431128E+01 -3.013144377113E+02 -6.215881040485E+02 -1.110014306545E+03 5.783062447334E+01 -2.078920047554E+01 -1.961006058252E+00 -4.024022772594E+00 2.048544783714E-01 -7.912396511736E-01 5.344007261356E+01 -1.501983572508E+01 -3.154483221395E+01 1.442748622489E+01 1.338887480465E+03
 -8.962572559210E+01 4.387437704404E+01 -8.862277345287E+01 3.423118985818E+01 -9.652382206136E+01 3.651165408707E+01 -2.102554180625E+00 -1.033601903520E+00 3.627328900753E+00 -3.012726354681E+01 1.318731082568E+02 -5.219246041450E+01 -5.543284496309E+02 -1.149263503065E+03 -2.055267371918E+03 6.118275900292E+01 -4.278168451626E+01 -5.921605960982E+01 -5.682293446527E-01 1.365268159774E-01 5.964097629450E-01 3.681071535339E+01 4.602613738763E+00 3.357007701529E+00 2.873330204827E+01 2.217965134878E+03 4.321975700327E+03
 9.263925270110E+00 4.762808871629E+01 -1.346625016555E+02 -3.367354399016E+01 -3.535795971988E+01 4.809008598387E+01 9.162261534713E+00 -2.404313858677E+01 1.733215924512E+01 -4.072191946264E+01 -1.329951948542E+00 4.202288228193E+01 -8.820189455601E+00 2.789691080457E+01 6.432752259755E+01 -7.341397466551E+02 1.296526536297E+02 -1.094932109009E+03 2.508897756833E+01 -5.701375389740E+01 3.427021301814E+00 -8.959703535880E+00 -1.943623927919E+01 2.525234092515E-01 -1.867772556126E+00 -5.828057235342E+01 -3.874820080842E+01 1.205813807105E+03
 2.938710593459E+01 -6.754333006335E+01 1.449193921765E+02 -4.972423270707E+00 -4.029353934875E+00 -8.162248611693E+01 2.020387028017E+01 2.448081847509E+01 -4.216414077843E+01 4.909681142547E+01 -1.676250586898E+01 -7.042540448308E+01 -4.761275931410E+00 -4.855052400426E+01 -2.533610006534E+01 -4.829571737691E+01 -1.304244484603E+00 -8.725583227838E+01 -1.536170268468E+01 6.191551046629E+00 -2.111723881839E+01 1.154245368095E+01 2.876232630391E+01 2.178116533600E-01 1.047830666987E+01 -1.880096558523E+01 1.226010416950E+01 2.760510874383E+02 3.670007126393E+02
 2.431656055311E+01 8.347801675359E+01 -2.540595438541E+00 -6.371031773747E+01 -4.513159520392E+01 -4.600382007807E+01 7.159608659370E+00 -9.599343379190E+00 -1.819005373730E+01 -6.822558496596E+00 -1.110044009927E+01 -2.232109470727E+01 1.252472187632E+02 7.869800971430E+01 -9.527064048636E+01 -1.181433479204E+03 1.790265076944E+02 -1.812441588240E+03 1.647682149045E+01 -5.543220027704E+01 -8.892806557822E+01 -2.782008014329E+00 -1.234673255009E+01 1.929013335037E+01 -1.231483177964E+01 -2.629634627721E+01 9.768892703441E+00 1.975067340825E+03 6.170936435152E+02 4.098383055572E+03
 -2.535889280759E+01 -4.790568498144E+01 1.493830062615E+02 -1.502022064083E+01 1.827935116312E+01 -9.915074525301E+01 -1.169116024378E+01 2.135396128447E+00 -2.857154178483E+01 3.487045964141E+01 -3.290056874864E+01 -7.857402398763E+01 -1.718112884031E+01 -4.148081931622E+01 -6.319443962632E+01 -5.242971786559E+01 1.662242535477E+00 -3.455915413046E+01 -1.912157536275E+01 2.362516354273E+02 -3.662900543188E+02 1.913513051074E+01 2.273602009770E+01 5.031631155583E+00 1.126568248878E+00 5.260010707309E-01 4.793999001780E+00 -8.264742503839E+00 -2.382103919448E+01 -1.380483285348E+01 6.397074027515E+02
 -6.420666967073E+01 -3.548924991473E+01 3.087062493648E+00 4.298311482199E+01 -3.014837316158E+01 -6.124054502004E+01 6.863558169924E+01 1.025035032254E+01 -1.505545603928E+01 2.172015800129E+01 -1.869145211259E+01 -3.097500693392E+01 -9.728098923556E+00 -9.685509448146E+00 -1.250747912774E+01 -3.938405708849E+01 1.394577657185E+01 -3.461996362851E+01 9.545216158055E+01 -6.185112606913E+02 1.025614672744E+03 -3.155749161884E+00 6.985178167882E+00 1.640989915698E+01 -8.865238434328E+00 -7.006687520932E-01 -3.681918042366E-01 4.388435668555E+01 2.470683033555E+01 2.450802588731E+01 -5.046823607582E+02 1.038792401616E+03
 9.690533042393E+01 1.453970880392E+01 -2.533105746152E+00 -7.771760729127E+01 7.432840637887E+01 1.638683605771E+01 -7.855534711055E+01 1.241867427746E+01 -4.825029056214E+01 6.521796093140E+00 -2.483592602389E+00 -4.539378837374E+00 2.406322076631E+00 -3.388584894079E-01 5.327868011874E+00 1.044010219726E+02 -8.631655153454E+01 -7.020848733046E+01 -1.833156071174E+02 1.219082008580E+03 -1.972133262028E+03 2.984783571229E+00 2.929289797888E+00 1.070980353091E+01 -6.472891358036E+00 -6.145306071912E-01 2.794543284138E+00 -3.006413818784E+01 -3.328973050919E+01 -9.500930936299E+00 1.185388553613E+03 -1.780831601986E+03 4.099567776268E+03
 -3.829278647265E+01 4.884394761387E+01 8.888770928140E+01 -1.262719877590E+01 -3.450384926502E+01 -1.003974222336E+02 -5.050312598292E+02 -3.020146575428E+02 8.730286136847E+02 4.074623962754E+01 -5.821606210878E+01 -5.018151469983E+01 -2.091505322615E+01 -3.251856026198E+01 -6.168453310094E+01 -5.179194696684E+01 8.737670206426E+00 -6.834686831708E+01 4.290422585836E+00 4.966208667977E+01 -6.712178914813E+01 -1.554347470204E+01 2.196523616654E+01 2.766670726807E+00 8.934910823818E+00 1.115730415488E+00 3.338541071940E+00 1.813498898841E+01 -1.798166063778E+01 -1.434045508156E-01 2.231388611494E+01 -3.695216705537E+01 4.213267871985E+01 6.722149847210E+02
 2.468188704291E+01 9.439758980409E+00 -7.383531186204E+01 -1.190932596115E+01 -3.741746808975E+01 3.609736773436E+01 -4.650930988210E+02 -2.725092260321E+02 7.924710408210E+02 -5.044709615578E+00 -2.271263405302E+01 3.679595803962E+01 -3.721627365330E-01 1.579761354441E+01 1.322720313455E+01 2.610325033416E+01 1.183568376201E+01 1.928258980458E+01 2.065607203992E+01 -1.152219473000E+01 -1.354541977491E+01 -4.428126539715E+01 1.091701987936E+01 2.336035419095E+01 4.789206239806E+00 4.010120786417E+00 -1.553153104299E-01 -8.863667225402E+00 8.131507211115E+00 1.098598318716E+01 4.761175182319E+01 -5.392890985073E+01 9.961475778711E+00 5.209916399556E+02 1.033887229088E+03
 3.549318899854E+01 -8.315871213060E+01 4.060425189760E+01 3.629604418577E+01 8.039865340706E+01 2.970327064465E+01 1.125659157938E+03 6.633236365067E+02 -1.923438941369E+03 -2.060713108826E+01 6.643282282231E+01 -5.299456260329E+01 1.129306975817E+01 -1.248041142515E+01 -3.890640089883E+00 -1.007429342596E+01 -8.668833530517E+00 -6.435716038872E-01 -8.371501925210E+01 -1.308419953276E+02 -6.688489857941E+01 3.866678287537E+01 -1.890038525471E+01 -1.086718982097E+01 2.309119731902E+01 -3.586663969330E-01 1.067585696612E+00 3.943240486024E+00 -1.539494939846E+01 1.119982431238E+01 -4.885620764272E+01 9.101952117805E+00 8.076003415379E+00 -1.258541286003E+03 -1.810021015174E+03 4.182840033817E+03
 -3.709993827146E+00 3.457328372217E+01 -6.156918316979E+01 -3.237751561071E+00 -3.204265821274E+00 1.969812133042E+01 -1.935236082298E+01 -4.333843975903E+01 5.986777703467E+01 -3.551141942788E+01 1.546692966721E+00 4.573908403413E+01 -2.085782276818E+01 -3.196606699274E+01 -5.082414981749E+01 -2.497021381325E+01 1.484916657519E+01 -4.085062642303E+01 2.113996948444E+01 -9.262723219753E+00 4.588578373833E+00 5.526442963967E+00 -3.422564789649E+01 -3.067584247564E+01 -6.350305389769E+01 2.221268154729E+01 7.952730169923E+01 1.027468871141E+01 2.992684022033E+01 5.973298357165E+01 -3.477714070485E+01 -3.453162275913E+01 -2.990530437945E+01 -3.389255163768E+01 7.137877371765E+01 -9.536983292828E+01 5.270468194129E+02
 -3.345999952053E+01 -2.932549129773E+00 -2.269908602749E+01 -1.055136230450E+00 -7.867494419512E+00 1.114987943001E+01 8.692695558726E-01 7.563501056931E+00 1.633470450482E+01 3.624667576127E+01 -1.236219902483E+01 -4.004460181109E+01 1.198068403603E+00 -1.871291500348E+01 -3.308783601955E+01 2.507369435988E+01 5.386810228566E+00 3.205073677516E+01 6.209098958036E+00 -3.627306591390E+01 7.151131332871E+01 -4.945095508059E+01 -6.404548413980E+01 8.428199954576E+01 5.846964562946E+00 2.112615844698E+01 4.195490790349E+01 1.476963679624E+00 -6.415412112420E+01 -5.304307468977E+01 -4.920075330750E+01 6.494943020771E+00 -8.595436745988E+01 4.708316957982E+01 -3.411847212563E+01 1.527186918605E+01 -2.207369334286E+01 5.268847189809E+02
 1.232415420123E+02 -3.965516021066E+01 -3.139042058045E+03 -1.640212033454E+01 2.208799774971E+01 1.176207719945E+02 -2.505447753233E+02 -3.753436278763E+01 3.096313748665E+02 7.065024252711E+01 6.819106990318E+01 3.279360727636E+01 1.686170081954E+02 8.583118314679E+01 1.950982542138E+02 -1.539557614860E+01 -9.174182703486E+01 1.185043551350E+02 -5.581576508218E+01 -1.601062853815E+02 2.627503658752E+02 1.075678940767E+02 1.974464761644E+02 -3.628425811590E+01 5.409751045533E+01 1.337423663128E+01 1.367320244457E+01 9.543802493600E+01 -1.449607171257E+02 -8.005733931977E+01 -1.610769696441E+02 2.928072512356E+01 -7.473798494167E+01 -7.690808232561E+01 9.783097172022E+01 -1.142735561292E+02 8.786146956057E+01 -5.392433634644E+01 5.676592307444E+03
 -2.795416879258E+00 8.236094154313E-01 3.224171661252E+01 3.703624720905E+00 2.508262658314E+00 1.345792016753E+00 1.277440062714E+01 8.458953420071E+00 -2.199531117101E+01 8.699846041111E+00 -7.706464987418E+00 -1.885971232328E+01 -3.004685758678E+00 -2.194651638206E-02 7.308480563023E+00 9.980639200680E+00 -2.631252866787E+00 2.784112743440E+01 -2.626878626345E+00 -6.121994246328E+00 5.030749466076E+00 -3.458418712045E+01 6.140907202876E+00 6.889898449343E+01 7.461479057858E+00 -1.788168965550E+01 -3.045927391730E+01 -5.063995953162E+01 -3.631371670389E+01 -1.125385126716E+02 -1.209434539619E+01 8.782877642271E+00 -3.454040074036E+01 -1.625966515269E+01 -3.969428422682E+01 7.736649022859E+01 7.905092336519E+00 4.551148318966E+00 -5.735645784435E+01 2.336074041192E+02
 -3.187918252043E+00 -2.621628641337E+00 -1.638631232183E+01 -3.368368630369E+00 2.104855017236E+00 2.044121210586E+00 1.449838012609E+01 8.744827752884E-01 -2.069125415875E+01 -1.506866394027E+01 4.090495579616E+00 1.816515383112E+01 5.264617434552E+00 1.794429798363E+01 2.463281594408E+01 4.813146056407E+00 4.452300333861E+00 -6.209937108459E+00 -5.756920884348E-01 1.256378127533E+01 -2.613192337601E+01 3.074941904385E+01 -3.663622159432E+00 -5.644293325976E+01 1.305915392493E+01 -4.836772644121E+01 -9.228246732901E+01 -1.019308189660E+00 2.592395951225E+00 -2.162126322339E+00 3.952174926141E+01 -3.325559077745E+01 8.432320649852E+01 -1.307463055632E+01 -3.633178968483E+01 7.142173939364E+01 -7.859340945982E+00 -2.836870692153E+00 7.740623193053E+01 -3.655897591290E+01 2.146461715658E+02
 -1.819086220041E+01 1.301810886124E+01 1.028430066835E+02 -2.103991972125E+00 -1.155084412239E+01 1.731782838730E+02 -6.408336716583E+01 -1.563472797220E+00 1.282761795904E+02 -2.923842097152E+01 7.387024762507E+01 1.786525479660E+02 6.507623129307E+01 2.941873912313E+01 1.349256833505E+02 7.159632818101E+01 -4.109343399948E+01 1.094401229596E+02 -5.338354117849E+01 -6.745969732704E+01 1.487228518973E+02 -4.409883325009E+01 -8.302539216584E+01 -2.153333489033E+01 -5.015056835657E+01 1.214824479472E+01 9.426808710943E+00 -1.238057895184E+01 8.762564086963E+01 8.806603778880E+01 1.206312752130E+02 2.306218866268E+01 3.641460273478E+01 7.601520413106E+01 -6.792854233086E+01 2.379273549172E+01 -5.140842687677E+01 7.065997184236E+01 -2.364363668476E+03 7.838220937115E+00 -4.113406432068E+01 2.168273479354E+03
 -1.561359468889E+01 5.032635666359E+00 -1.666936315302E+02 -3.794377695285E+00 -1.877090881801E+00 -5.833489968354E+01 -8.008911352713E+00 1.773603215300E+01 -1.633822278972E+01 -2.662904261262E+01 6.725293373550E+01 8.625566370898E+01 3.505589963741E+00 -2.521339432743E+01 -4.178226239868E+01 5.606456491362E+01 -3.277027901960E+01 3.515431584817E+01 -1.782042295883E+01 6.848731941973E+00 -1.640300959058E+01 -1.244490883171E-01 2.752165549022E-01 -1.251401874041E+02 -6.739631522761E+01 3.001937937030E+02 5.320628978971E+02 -6.313805877739E+01 -2.239072636688E+01 -8.541006442022E+01 -1.912512844883E+01 -7.497575816639E+00 2.082317003401E+00 -1.725305502622E+01 -9.050073685762E-01 9.036758464582E+00 -9.712493990863E+01 -4.713664288524E+01 1.380724833067E+02 -5.099064214034E+01 -5.420286682854E+01 8.071830274273E+01 3.480519989170E+02
 3.414432524791E+01 -1.840777900613E+01 1.238475316965E+02 -3.077274022869E+00 1.626215623909E+01 3.130117659773E+01 -2.572424304228E+01 -4.296336069812E+01 6.560055159046E+01 -3.912916887254E+01 -3.842084532616E+01 5.678728168519E+01 2.297861677904E+01 6.212710025767E+01 1.031474218643E+02 3.746931131108E+01 2.263406293078E+01 9.279776566959E+01 3.220236068115E+01 -4.004456757522E+01 6.707792376988E+01 -2.144205530875E+01 -5.024308013150E+01 8.099322004401E+01 1.361470913156E+02 -6.428824146845E+02 -1.170652143191E+03 2.304616214223E+01 4.434718828825E+01 3.547315870918E+01 3.762752524898E+01 1.117671282286E+01 -5.422567573667E-02 3.406376404589E+01 -1.741713335839E+01 1.048358292626E+01 -5.786522662426E+01 -3.100257835957E+01 -1.241160032733E+02 -2.087798327016E+01 1.080217716964E+01 -3.320867799581E+01 -2.241252300523E+02 7.075396459110E+02
 4.204820119026E+01 -3.327708879899E+01 2.621448623212E+02 -9.562742923006E+00 2.529322690024E+01 1.214813870081E+02 -5.026814263374E+01 -7.124900275051E+01 9.810320458610E+01 -7.950859736358E+01 -4.906493051932E+01 1.410230464998E+02 4.144254631703E+01 1.057597637881E+02 1.640454218826E+02 7.165534212943E+01 3.717058918967E+01 1.468760464061E+02 5.627958644161E+01 -6.836557571127E+01 9.877146501284E+01 -5.728127055229E+01 -2.742415375862E+01 -9.534045328588E+01 2.387715178487E+02 -1.123118256818E+03 -2.036724076895E+03 -7.762558906202E+00 4.387514078418E+01 -3.642344181058E+01 6.318971873561E+01 7.992340379977E+00 3.886756288566E-01 5.611117922157E+01 -1.627696945427E+01 8.544126943785E+00 -3.020233147816E+01 -3.508193139674E+01 -2.709423353508E+02 5.203595099802E+01 8.441349605272E+01 -1.570380503843E+02 -4.258496642281E+02 1.008174838992E+03 1.933489128702E+03
 -3.044990239233E+01 -2.053129312026E+01 5.724472199433E+01 1.088614640873E+01 5.140536773441E+00 -8.111136208155E+01 -7.639343289747E+01 4.470664351697E+01 -1.576942494065E+01 9.427958322548E+01 -1.804403072129E+01 -1.159623477766E+02 5.795368686438E+01 -4.227682869645E+01 -6.953983544673E+01 -4.838712918057E+01 -4.798756678579E+01 -1.023411071703E+02 -5.844459360682E+01 2.584717501752E+01 -6.488469707997E+01 -6.891496304061E+02 5.080147730527E+01 1.178048065221E+03 2.621974270474E+01 -5.345984005339E+01 -5.627900944772E+01 2.498634427601E+01 -4.371775194970E+01 8.987874668740E+00 -5.890444087913E+01 -1.998743850513E+01 -7.678929282238E+00 -4.412599850680E+01 5.298394376403E+01 -1.170003544601E+02 7.444803248147E-01 3.847402778953E+01 -5.435249820154E+01 1.805980886970E+01 6.493301290492E+00 8.170865614742E+01 -2.619292123353E+01 9.641950566909E+01 1.148867923173E+02 7.838986735009E+02
 -1.038449309128E+01 1.245999293808E+01 -7.604870692063E+01 1.691959611902E+00 1.024525895787E+00 -3.946412993569E+01 -4.944466796931E+01 -9.665770397254E+00 4.498836292842E+01 6.622522715113E+00 1.626982325878E+01 -5.147193698424E+00 3.143555312624E+01 2.449344184274E+01 3.368105185550E+01 5.012599085187E+01 -3.187154231387E+01 3.214063552798E+01 -8.587283151488E+00 -4.856534184941E+00 -3.407541421505E+00 -1.161474224828E+02 -7.106737987813E+00 1.696420726288E+02 5.540882198337E+00 -2.445319188331E+01 -3.858084856504E+01 -2.501805437674E+01 9.162139281221E+00 -7.994618701710E+00 -5.761863089045E+00 -8.798434122944E-01 1.987700224372E+00 2.680333533315E+00 5.031982527704E+00 -7.738842386355E+01 1.248911581016E+01 -1.440481249449E+02 3.346606519288E+01 2.871129145058E+01 -8.559511047837E+01 6.548188588043E+01 2.910961837903E+01 -6.185422609894E+00 1.050475718943E+00 9.756037431852E+01 3.127723339457E+02
 2.966969745272E+01 3.426100039670E+01 6.903706695284E+01 -2.490494378119E+01 -9.914642732080E+00 1.312018225712E+02 2.288529028955E+01 -9.909613181153E+01 1.160328982561E+02 -1.225661298344E+02 7.391207274711E+01 1.529955627061E+02 -3.501997619668E+01 9.858317309600E+01 1.511720940481E+02 1.024065149274E+02 3.332227155729E+01 8.209816248611E+01 6.710495391988E+01 -6.060274391362E+01 7.442234653203E+01 1.071693728328E+03 -9.170465131236E+01 -1.837694060177E+03 -5.911464815849E+01 -6.059086168150E+00 -5.859319216327E+01 -3.855582923543E+01 7.526491930947E+01 1.619151059808E+01 7.502073211606E+01 1.058863016742E+01 1.107450263491E+00 3.704217606546E+01 -4.946395492152E+01 -6.333782297646E+01 8.527591294946E+00 -6.506626752584E+01 -8.680595551809E+01 -5.701803667996E+01 7.732694196196E+01 -1.653460743067E+02 -1.481808046307E+01 -8.121459557240E+01 -7.201970103200E+01 -9.888665610529E+02 -1.122130066688E+02 1.739656417846E+03
 -2.521149825499E+01 -3.037559682357E+01 -4.576712092685E+01 7.787511858192E+00 6.354310697703E+00 2.576706369438E+01 -3.108264314958E+01 -3.473099118920E+01 5.444295425042E+01 -5.406828634286E+01 3.238180716083E+01 9.041258314432E+01 -2.219914858240E+01 4.145065692005E+01 8.237903668176E+01 9.613183888927E+01 -9.518921445886E+00 1.342191753792E+02 1.527650975145E+01 -1.335886617381E+01 5.716774376361E+01 -3.168846603420E+01 -4.715866999263E+01 6.032119339932E+00 -3.529958893094E+01 -5.443881823771E-01 2.035458891017E+01 -4.184703948173E+02 -2.197555297391E+02 -9.042415332321E+02 4.516134911673E+01 -1.327855366191E+01 2.983424649914E+01 2.726474335058E+01 -2.722435876307E+01 7.531245930684E+00 -9.777373228861E+01 6.965561764382E+01 4.009184127894E+01 -4.902278976937E+01 6.380033987895E+01 9.670669518100E-01 3.027971507492E+01 -6.835457539425E+01 -7.766467408167E+01 8.451960010941E+01 -2.625483462719E+00 -9.475233751958E+01 5.228539582862E+02
 1.639617380591E+00 -1.583941179145E+01 1.105073218896E+02 9.455081784457E+00 -1.732668680884E+00 7.383028682544E+01 1.715004576527E+00 -2.927345668811E+01 3.584030993486E+01 -1.929366296410E+01 -1.427470390940E+01 1.989864312886E+01 -7.140593198194E+01 -3.596734227681E+01 -5.100109449246E+01 8.509446635803E+00 8.618913877231E+00 7.128346909582E+01 2.483274972982E+01 8.031668355927E+00 3.080300953444E+01 -9.393401709010E-01 -9.646259396442E+00 -5.229343159825E+00 -1.900540085255E+01 2.299426364572E+01 1.302578821564E+02 -3.534048470879E+02 -2.284463820935E+02 -8.089539693333E+02 5.630781170072E+01 -1.780585709915E+01 5.572644546351E+01 2.787327519322E+01 -9.893507579223E+00 -5.279052039168E+00 7.565085082697E+01 -5.469709740562E+01 -8.360049778290E+01 1.018823929576E+02 -5.006097877806E+01 -1.219977887188E+02 4.399709283351E+00 -7.518165213881E+01 -3.278098799739E+01 -1.449784095157E+01 -2.850466464424E+01 -2.199515262114E+01 1.837073067481E+02 4.876383413296E+02
 -4.415602810266E+01 -3.579441717237E+01 9.731196849764E+01 2.041913444406E+01 5.726224491043E+00 1.729826539502E+02 -4.384442611982E+01 -7.501593877750E+01 1.017563130637E+02 -8.789398318316E+01 2.977031494892E+01 1.102902586670E+02 -8.752589652554E+01 5.590369203590E+01 1.436970783360E+02 9.097694904660E+01 -3.733321504000E+00 1.567266089340E+02 4.859740829638E+01 -5.894053544495E+01 1.488437182545E+02 -3.137408681081E+01 -6.527236468820E+01 -1.126988518536E+01 -4.082006036668E+01 3.157002223088E+01 -5.859237936293E+01 -8.953874780899E+02 -5.610346689697E+02 -2.012418084869E+03 5.961872216711E+01 1.686869865519E+01 -5.241816339762E+01 6.554775729712E+01 -2.978366160588E+01 5.770012831097E-01 -3.661065769788E+01 2.430203375587E+01 -1.194478140095E+02 1.408304945324E+02 -4.206246258811E+01 -2.228899842431E+02 3.930301879638E+01 -1.170067530628E+02 -9.169292424523E+01 8.593497088976E+01 -2.596631663941E+01 -9.999727052573E+01 7.139860577806E+02 7.075613021944E+02 1.917942967071E+03
 -2.578655641989E+01 -2.809932662413E+00 1.998742396487E+02 1.485744697504E+01 -1.201908641069E+01 7.631561044908E+01 9.290122924183E+00 -2.251918366082E+01 5.096960329283E+01 -2.928292532494E+01 -7.968028780981E-02 4.707286929855E+01 -7.802257668509E+00 2.728898543443E+01 5.087555119497E+01 -7.142246451583E+01 4.445279843138E+01 -2.410312456448E+01 4.858922267312E+00 -7.230401689630E+01 1.018227057114E+02 2.381010504757E+00 -1.887697815662E+01 -1.106967601459E+01 -2.415723733398E+01 3.769244687115E+00 8.982279329600E-01 3.345909544488E+01 3.372468553954E+01 1.355834974423E+02 -4.934945057436E+02 4.669330957454E+02 -1.089873784468E+03 -9.709083828916E+00 -6.348904792777E+01 7.559037149798E+01 -4.110841160714E+00 -3.646801750661E+01 -1.817995371793E+02 1.000318532371E+01 -5.330699813109E+01 -9.864668982480E+01 -6.704909768916E+00 -2.934691403888E+01 -5.545615684145E+01 4.552217604822E+00 -1.560862464152E+01 -4.276281765975E+01 -8.826950539204E+01 -4.234869384603E+01 -4.376660311401E+01 6.783753084064E+02
 4.649374290877E+01 1.491588777392E-01 3.593225037424E+01 -6.768109058396E+00 5.638090452925E+00 -2.613016278285E+01 1.980770694076E+01 1.532551323123E+01 -5.872473919994E+01 3.768952300401E+01 -3.592559876525E+01 -8.657231758655E+01 -1.752881866237E+01 -4.978015318785E+01 -7.720008245669E+01 -5.197601231464E+01 -6.144292348157E+00 -1.005704398174E+02 7.926715007882E-01 2.269243028422E+01 -3.049282989609E+01 2.148351962514E+01 3.147389080832E+01 -1.626845887730E+00 1.534735426687E+01 3.181320713280E+00 4.008056131361E+00 2.741553304839E+01 -3.413890699618E+01 9.594203725421E+00 2.991486964284E+02 -2.785664439131E+02 6.488988538142E+02 -8.014649845577E-02 3.062711798817E+01 -1.916707408281E+00 -2.165750588458E+01 -1.010162053769E+02 -1.338279142372E+01 -3.060335791813E+01 -4.055525340028E+01 5.191531748773E+00 -1.718942203491E+01 4.658128790407E+01 7.662241157000E+01 -6.854214949672E+01 -8.464912761499E+00 8.681908316736E+01 2.672540531792E+01 3.813756086883E+01 7.429564506003E+01 -2.949467660567E+02 4.275816017555E+02
 -7.309482175566E+01 2.197660626814E+01 1.991331620314E+02 2.522143239841E+01 -2.468869652763E+01 1.493097761900E+02 -5.120320837167E+01 -5.937747563023E+01 1.552780185756E+02 -5.368400670168E+01 3.958313430688E+01 1.041858028342E+02 1.474350300539E+01 6.739526599820E+01 9.997812655843E+01 2.140139861488E+01 4.247563284954E+01 1.151147015899E+02 -6.569651454502E+00 -1.301840299755E+02 1.619475248578E+02 -1.687806622638E+01 -4.583404577363E+01 -1.461112618549E+01 -3.165749444369E+01 5.171931859972E+00 4.640154844239E+00 2.028093213181E+01 4.785553877988E+01 -3.981966361000E+01 -8.464550576806E+02 7.869789515833E+02 -1.867493484377E+03 2.797053515221E+01 -1.890052482074E+01 -5.471387387298E+01 8.356098210254E+00 3.411721219580E+01 -2.093651354052E+02 1.209942328402E+01 -9.131649918720E+01 -1.906792669828E+02 1.837534026736E+01 -7.047826189487E+01 -1.066662459356E+02 7.524681924245E+01 6.117924871795E+00 -8.532853949386E+01 -7.060734373501E+01 -7.282605265046E+01 -7.497736256197E+01 9.198963420326E+02 -6.069228363275E+02 1.745645667493E+03