#BIOSYM hessian 1
@Type: Hessian Update
@Units
 distance: 	A
 energy: 	Kcal/Mol
#header
@natom 19

#label
L1      L2      L3      L4      L5      L6      L7      L8      L9      L10     L11     L12     L13     L14     L15     L16     L17     L18     L19

#element
Li Li Li Li Li Li Li Li Li Li Li Li Li Li Li Li Li Li Li

#matrix
57
 1.645774619315E+01
 5.917126502987E+00 1.623149598849E+01
 8.717630479281E+00 1.736985612572E+00 2.363466634625E+01
 -4.107861713124E+00 -2.715483537761E+00 2.146394197059E+00 2.805884212170E+01
 -3.639559992589E+00 -4.591728156796E+00 3.347728993577E+00 1.072636041378E+00 1.917136272730E+01
 1.178560951060E+00 5.846990397087E-01 2.720502788055E-01 -4.152594061663E+00 -5.488193963576E+00 2.783647314209E+01
 1.255168161677E+00 8.900971330615E-01 6.445970023866E-01 2.851863009869E-01 -3.575596955895E-01 -1.177713658914E+00 4.280745009913E+01
 -1.484113699461E+00 -2.497909709149E-01 -1.301183674731E+00 -7.967266498081E-02 6.316933670657E-01 -6.034478389907E-01 -6.638100062969E+00 3.659367803682E+01
 -1.050465998279E+00 9.013737744655E-01 -1.559371320765E+00 6.321921448100E-01 -5.287913027135E-01 -9.098362424694E-01 -2.702755234660E+00 1.291550778659E+00 2.887958372611E+01
 7.316975664478E-01 2.750002558476E-03 1.872652102718E+00 -2.794715713900E-02 1.164867165264E+00 -1.048687588925E+00 3.310280839418E-01 -3.263546231126E-01 9.369648180910E-01 3.423648398268E+01
 4.651426398514E-02 2.178057734949E-01 -1.979193732592E-01 7.251188095560E-02 6.896696419860E-01 1.131479653753E+00 3.410982761977E-01 -9.519478552385E-02 4.131602423600E-01 -7.938422273135E+00 2.025764248895E+01
 -6.468571165843E-01 5.654986839214E-01 -1.163855462302E-02 3.569561882193E-01 -2.716743658784E-01 -1.291932130134E-02 3.175016263116E-01 -2.595844972348E-01 -6.090822626170E-01 -4.879833040455E+00 -3.198012370427E+00 1.495439796038E+01
 -1.223429118427E+00 3.249827582713E-01 -2.427332550001E-01 3.454353561030E-01 1.325653090513E-01 1.905249116902E-01 -4.188773295412E+00 3.817740370738E+00 -2.444431238603E+00 -1.636481026267E+00 -7.767273927840E-02 3.506047787243E+00 1.673882130149E+01
 -4.099403325026E-01 1.506497163017E-02 -8.031456950272E-02 1.041302589626E+00 -8.557297394009E-01 -1.655590756140E-01 7.295631961413E+00 -8.316946727128E+00 4.217285929051E+00 3.574953224873E-01 -6.539706757499E-01 3.659713456041E-01 -2.995158801843E+00 2.101091560027E+01
 4.044632208290E-01 4.232469471538E-01 -1.299564390996E+00 -7.876228992970E-01 -1.880598010095E-01 -2.293224360040E-01 3.193661742710E-01 1.006700888964E-01 3.194233989572E-01 1.602659389238E+00 -2.598589864917E-01 -4.374452198402E+00 1.138649550088E+01 -1.544754012735E+00 3.134720935438E+01
 -7.816290671927E+00 -5.043740893476E+00 -8.817099807882E+00 -2.422530322366E+00 -2.022479565843E+00 5.410798984442E+00 -1.180236927556E+00 -1.295656033726E+00 -6.849954649118E-01 5.010722067142E-01 -5.787859706156E-01 -2.648163810061E+00 -5.298879239959E-01 1.212847011711E+00 1.534731514418E+00 6.172993298934E+01
 -3.856243792806E+00 -3.572754705574E+00 -6.267541699848E+00 -3.362413427971E+00 -5.261916334140E+00 8.820954854620E+00 -8.421195941656E-01 -1.743107029004E-01 1.643394274847E+00 -1.705699758308E-01 -9.656528696465E-01 7.788236657509E-01 8.229818766058E-01 -1.186057670675E+00 -4.906372991727E-01 5.057568047397E-01 5.791255391493E+01
 -8.165568559470E+00 -7.359357376713E+00 -1.076832050214E+01 1.871053010018E+00 6.436570902747E+00 -1.554431917024E+01 1.519452874652E+00 4.428128703077E+00 1.735049173732E+00 5.797183906854E-01 -4.700967551163E-01 5.105818041762E-01 1.295538329338E+00 -2.391237298108E+00 -1.184525748794E+00 4.155038395947E+00 2.598105453469E+00 5.553821993134E+01
 -6.679754473730E-01 5.507617892603E-01 9.384501147883E-01 -1.610036554781E+00 3.360334298991E+00 -1.199546332037E+00 -6.394344709110E-01 1.587935364589E+00 1.566366899291E+00 -1.296357711962E+00 -3.850679529715E-01 -8.186117654494E-01 -4.589458480827E-01 -1.032391904848E+00 -1.065328355940E+00 -6.147415213048E+00 3.839204098758E+00 3.634174522213E+00 1.935485094957E+01
 -7.149543177395E-01 -5.997248065868E-01 -6.261158826892E-01 1.878508303690E+00 -4.863877222950E+00 1.448894584321E+00 5.171335706626E-01 -2.334605000775E+00 1.255052708035E+00 -3.636172938897E-01 6.305314961472E-01 -1.374823688598E+00 -8.633695856887E-01 1.155699807804E+00 2.312774623355E-01 7.360768756377E+00 -5.775461295127E+00 -4.205191880600E+00 -4.274539268132E+00 2.535866598758E+01
 9.694976691697E-02 -4.931535969138E-01 -2.961260282781E-01 -2.165846641420E+00 2.559232069173E+00 -7.141893043408E-01 1.031772025795E+00 -2.400670763102E-01 -7.921652990926E-01 -6.663139458253E-01 -3.419829018489E-01 -9.756938527997E-01 -1.367353555021E-01 -2.981737771471E-01 -9.844250048544E-01 4.304550228764E+00 -3.712922787863E+00 -1.785084261497E+00 -2.757543542967E+00 3.027459281063E+00 2.360901042323E+01
 -4.698499056429E-01 2.361813751610E-01 -1.103857851539E+00 -8.050160933168E-01 -1.410224731986E+00 -7.420889211302E-02 -6.827970516752E-01 1.926988425089E-01 -1.578936827823E-01 -7.515201254613E+00 -4.858275244779E+00 2.434519694833E+00 -1.785419969927E+00 -2.635857941718E+00 -2.822920036008E+00 1.297089937063E+00 -5.837205882925E-02 9.216483649320E-01 -3.767173981639E-01 3.142386787741E-01 -1.769879106123E-01 2.360548668143E+01
 1.148715830903E+00 4.508308921738E-01 4.247867310342E-01 -5.766061025343E-01 -1.228358804010E+00 8.592484758923E-01 -3.053839452389E-01 3.982116947868E-01 -8.692288916845E-01 -4.538178725626E+00 -2.910314144681E+00 9.514997077697E-01 -2.291452107906E+00 -6.668445576940E+00 -4.770805159430E+00 -1.855626671905E+00 2.848696827382E+00 1.609785516497E-01 1.013017590312E+00 -1.153161421568E+00 2.890663640727E+00 6.461977801353E+00 2.829489209650E+01
 -4.539893109844E-01 5.081280448422E-01 -9.938009908838E-01 -4.367857716893E-01 1.541108307680E+00 -2.406836088626E-01 -1.508835099756E+00 -5.597752139120E-01 1.607397339223E-01 3.733384831602E+00 2.142454560967E+00 -3.444913761483E+00 -2.272515140414E+00 -5.580944766579E+00 -3.731369978063E+00 1.639871242979E-01 -8.207030049519E-01 7.451111527651E-02 -7.182942268072E-01 3.407671932765E+00 -8.273112997217E+00 1.119900116291E+00 3.490624221617E-01 2.091619122715E+01
 -1.257109619834E-01 -1.175075672166E-01 -9.456966435812E-01 4.181364027269E-01 -4.096256714040E-01 -1.453248066832E+00 9.725294747989E-01 1.511279384175E+00 -2.014066418369E-01 -4.653195859443E-02 1.176508347191E+00 -9.232825015360E-01 -2.477757535749E-01 1.114826685477E+00 -5.523799784252E-01 -2.747401535357E+00 -5.079115723318E+00 -3.330123467375E-02 1.437861376518E+00 2.331349372071E-01 4.301197473477E-01 -1.156827645465E+00 -9.677695914849E-01 1.037028143421E+00 2.576199152690E+01
 -4.011176903208E-01 -4.343842296688E-01 -2.173815773525E-01 5.135822578807E-01 -2.875345797993E+00 -1.343309171210E+00 -5.974000447965E-01 -5.691905425166E-01 1.442264791199E+00 -9.564259242634E-01 8.631495948967E-02 1.013919640392E-01 2.989613150494E-02 -4.811686873485E-01 5.016709335028E-01 -4.939816184868E+00 -6.295458125659E+00 -1.029176793928E+00 -9.875838073713E-01 6.828306659705E-02 7.577237998323E-01 1.096945441643E+00 -4.935576103046E-01 -2.915768575526E-01 -1.112202770900E+00 2.990227311667E+01
 1.246103146902E-01 -1.260853374679E+00 9.087715639902E-01 -1.748373306001E-01 -1.734046236173E+00 -5.730603802396E+00 -2.463036605239E+00 -1.390833969370E+00 -8.266561434982E+00 1.970219181681E-01 -1.893089954604E+00 1.071317503208E+00 8.246271328235E-01 1.344920535864E+00 -4.090822600604E-01 2.469082668681E-02 1.364034732230E-01 7.386581288607E-01 -1.361382515512E+00 -6.720404445406E-01 2.892570482845E-01 9.536077457585E-01 -7.619968304325E-01 -1.132175478506E+00 -5.061304099207E+00 1.117006022714E+00 2.854451896473E+01
 8.245091126297E-02 -2.264302840583E-01 -2.327443646425E-01 -4.919144816269E-01 -9.605714820930E-01 2.315287767290E-01 -7.201797145197E+00 -1.960815977518E+00 6.969361375075E+00 1.960878861823E-01 8.912989113689E-02 2.145201258581E-01 1.346146524129E+00 -8.957404501469E-01 1.497809677995E-01 1.012007205977E+00 9.530831581819E-01 -1.535050780073E+00 -8.879685601402E-01 6.516333545069E-02 -8.594179160489E-01 -9.913434022692E-03 1.026120001301E-01 -1.475884057036E-01 -1.367653008827E+00 -7.113023896031E-01 1.004422586054E+00 9.388054431037E+00
 3.827959860061E-01 -7.142042931772E-02 -2.361312687363E-01 -6.238819952732E-01 -5.138635246674E-01 4.309753629025E-01 -1.596290151084E+00 -1.145938190907E+00 9.368163254971E-01 1.078835432014E-01 6.566357416062E-01 -6.901366590405E-01 -9.371427546884E-01 -4.441891178528E-01 2.857701368787E-01 1.885109619783E-01 8.679534684491E-01 -3.423863156651E-01 1.417062542979E-01 4.502438121142E-03 -1.287940417399E-01 -4.540230383490E-01 -1.006491313689E-01 -1.106403001303E-01 -1.012321587899E+00 2.049214268007E-02 1.417472191960E+00 -8.631055480196E-02 6.601381631089E+00
 8.191331766906E-01 -8.606359662586E-01 8.204420511979E-01 8.665045212540E-01 6.408104415215E-01 -5.079487853224E-01 4.751828160303E+00 -9.185891179124E-01 -4.347105154462E+00 -5.594255511496E-02 -6.236004562135E-02 3.435480667781E-01 7.200682689761E-01 2.235045284836E-01 6.031633284078E-01 1.940080797180E-01 1.331802383512E-01 -9.031508975904E-01 -2.428259936191E-01 9.897562982376E-01 -5.110463296099E-01 -5.807518324418E-01 -3.589788249424E-01 4.912677076102E-01 -3.139996127109E-01 5.495216562669E-01 -7.789713932456E-01 -6.517828296629E+00 -1.746010301710E-03 2.821139725953E+01
 1.440291369278E+00 -3.813592724707E-01 1.148595346541E+00 9.741857205903E-01 -1.858563516268E+00 1.536843824659E-01 2.795814671231E-01 -9.979146221840E-01 -1.505943932835E+00 -1.076896241170E+00 -1.695836437293E-01 2.291593091859E-01 -2.166775183352E-01 -1.750450407708E+00 6.304197230411E-01 -1.600448339187E+01 -8.000132094835E-01 5.978182093186E+00 -1.212751411520E+00 -1.417292156384E+00 3.972333405136E-01 -6.014663952520E-01 5.161001230492E-01 -1.157601414171E+00 -3.761866625215E-01 2.533579070029E-01 1.114845136924E+00 3.438428511450E-01 8.071121881202E-01 -8.529116164964E-02 3.324881335879E+01
 1.009290918623E+00 -9.684788134280E-01 8.999751110673E-02 4.551062557077E-02 -1.540939868538E-02 -9.718676993917E-02 5.725723390197E-01 -2.410930356698E-01 6.775824425272E-01 1.624446412553E+00 -7.158459998757E-01 1.303116130315E-01 -1.570834949358E-01 1.017704696188E+00 7.997625907563E-02 -2.540953008267E+00 -1.423083316585E+00 1.003926444741E+00 5.011611050904E-01 -6.721179868254E-01 -9.495287920777E-01 -9.150040819017E-01 -3.278877384627E-01 -1.086744856636E-01 -7.786468866020E-01 -6.166891715847E-01 -7.516325554692E-02 6.712090214812E-01 -2.464064932536E-01 3.000426268442E-01 2.115706402532E+00 1.949143431273E+01
 1.535676265232E+00 -6.181516205498E-02 -3.552228156193E+00 3.834277984955E-02 3.208882524730E-01 -7.640269819115E-01 1.542682155765E-01 -7.326288320872E-01 2.090446113460E-01 2.470187511562E-01 1.128204897960E-01 -3.737749607951E-01 -1.655314256089E+00 1.421455663943E-01 2.449023950499E-01 6.325255535501E+00 6.597273143254E-01 -4.187315440973E+00 8.245610857909E-01 2.393207303704E-01 1.543226407905E-01 -1.144600305313E-01 -5.320083862868E-01 1.076884824101E+00 1.060933803364E+00 -2.275295438628E-01 2.123814540655E-01 7.894917625537E-01 9.688012013264E-01 1.241855947730E+00 -5.036089942898E+00 1.019918296508E+00 1.125970318034E+01
 -6.202891015073E-01 -7.477637915619E-01 1.431912178901E-01 -8.990966527169E-01 6.289632534030E-01 -1.518203690664E-03 -1.632384580857E+01 -2.699275848108E+00 -9.725275836034E+00 -8.890594307614E-01 -9.050489002147E-01 9.487027998451E-01 1.743917040080E+00 -1.287072479583E+00 -1.554312491427E-01 -1.180983955887E-01 4.956581349762E+00 3.781758724501E+00 -1.073459365590E+00 -1.331049887646E-01 5.182681573847E-01 9.223945327289E-01 1.597881280828E+00 9.838868542618E-01 -7.019209631684E+00 -1.878603496726E+00 7.223549225482E+00 1.184973973694E+00 1.466831157845E+00 2.864345482836E-01 -3.478340809489E+00 -7.926196252443E+00 -2.774147231385E+00 3.110996243674E+01
 -3.471320613561E-02 -8.186255803805E-01 6.962096410020E-01 5.135987072817E-01 1.800796813807E+00 -7.623138370145E-01 -2.254334948191E+00 -1.606312040491E+00 -2.980446308391E+00 -1.691254082220E-01 -4.367796648709E-01 8.895562846321E-01 1.817068874045E+00 1.028017247035E+00 1.302205696741E+00 2.081870033329E+00 -9.489220324365E+00 -7.624006301789E+00 -7.831647743544E-01 -3.569627760940E-02 -2.143866410196E-01 1.380176189358E+00 -1.921467074173E+00 -1.521241377838E+00 -2.465139250461E+00 -1.703142345240E+00 3.577463672957E+00 1.959119971649E-01 -6.850255600432E-01 8.891576169005E-01 -5.374280396646E+00 -7.933668907337E+00 -2.297960452412E+00 1.157548440104E+01 4.184185720716E+01
 3.993194892316E-01 4.901349393753E-01 -8.254090550914E-01 1.058361131197E+00 -4.323063031510E-01 2.800025433398E-01 -6.860619128277E+00 2.925666190160E+00 -2.963383034372E+00 -1.152149074840E+00 7.903892590112E-01 -1.403904245743E+00 -1.268811655820E+00 -2.957001127411E-01 -7.660884458092E-01 3.548131419662E+00 -9.760096040097E+00 -6.386839757095E+00 7.637233577792E-01 -1.394597424515E+00 -9.314166974656E-01 1.601431926781E-01 8.876764176076E-01 1.324035889941E+00 5.538932320008E+00 1.299825682183E+00 -5.798776834791E+00 -2.859379118924E+00 1.748816215750E-01 -2.092669590146E+01 -1.730348600917E+00 -1.851831385124E+00 1.364423021883E-01 8.145279477260E+00 5.784152410984E+00 5.454670312511E+01
 -2.903005735426E+00 1.630935939708E+00 -3.082067304474E+00 4.016895755727E-01 8.006503625616E-01 -6.521429804909E-01 -1.562844321543E+00 1.120792587743E+00 -4.723878195783E-01 -4.662094642087E-01 -1.917595731454E+00 1.882813879886E+00 1.510435512064E+00 4.897126503119E-01 -1.170900499235E-01 -7.517286766313E-01 -4.166916121692E+00 2.167004640634E+00 -4.468473223802E+00 -1.308353824695E+00 2.616962621681E+00 -1.020281197066E+01 -2.681812493905E+00 -4.382410324462E+00 -1.073616279368E+00 1.093327345193E+00 4.187293982980E-01 1.807511890470E-01 -5.732183101638E-01 -5.306474057214E-01 -5.117978506698E+00 6.239257259054E+00 1.284759827632E+00 5.472060923778E-01 1.175965481622E+00 -6.342087807998E-01 2.616750555140E+01
 1.762447108577E+00 -2.973746954821E+00 3.587031282417E+00 5.013109424790E-01 -2.834675036072E-01 1.506227205976E+00 1.302612167148E+00 -1.660539309878E+00 -1.725943087175E+00 -4.405859294880E-01 1.315520078412E-01 1.141993798447E-01 -1.061384078673E-01 -1.355685169287E+00 -2.359797551069E-01 -1.573279188070E+00 -1.563290247955E+01 4.041218896335E+00 -3.033709862706E+00 -1.645592469371E+00 1.333187176705E+00 2.611348444925E-01 6.660345688714E-01 -1.438784224091E+00 -7.335841323852E-01 -6.185010145828E-01 1.601108087811E+00 1.423046247265E-01 3.981951006049E-01 1.200822949965E+00 7.170451415760E+00 -5.137663845471E+00 -2.481832502487E+00 -4.892531610258E-01 2.898987345814E+00 -1.901818563420E+00 -1.396789667111E+00 3.125662052543E+01
 -3.016717574410E+00 4.663979472128E+00 -5.626272492861E+00 1.922590799879E+00 1.164968442797E-01 -1.195428172734E+00 -7.196484038047E-02 -1.664764393915E-01 8.140020987893E-01 -1.201525867630E+00 3.687035961381E-02 3.123372100486E-01 4.655825368195E-02 -1.049230502464E+00 5.370001976684E-01 5.594260344840E-01 2.317312068563E+00 -1.119703273119E+00 2.800253230856E+00 1.811422987098E+00 -2.158768307381E+00 -3.324309944303E+00 -5.335668896836E-01 -2.140578720610E+00 1.155372663390E+00 9.115345271786E-02 -1.102093344115E+00 2.140089660216E-01 -9.198330084526E-02 9.242640604315E-02 8.762125939876E-01 -2.812648165650E+00 -1.226534587137E+00 -1.223804254143E+00 -1.872344863715E-01 1.416266965647E-01 2.963461604646E+00 -3.685941634443E+00 1.777269967791E+01
 -3.732780386197E-01 6.759648214673E-01 -1.108017953786E+00 -2.710781908142E-01 1.188170754997E-01 4.305537771677E-01 -1.355364421572E+00 -4.062392177493E+00 2.110135959221E-01 7.027990476124E-01 2.978226102512E-01 -5.475508524540E-01 -4.383679086964E+00 -2.528857052964E-02 -1.053518689367E+00 -1.177616531149E+00 -1.440381605564E+00 -1.949712358185E+00 1.108957830044E+00 1.361746280500E+00 -6.722896248603E-01 -4.991552142047E+00 2.293540838606E+00 2.689283448449E+00 2.299246546489E-01 -7.130670069488E-02 -1.262853143145E+00 -1.774715953820E+00 2.364059263144E+00 9.873815774251E-01 -6.457408563273E+00 1.026857459439E+00 -1.737596832029E+00 -2.263069314486E+00 9.009060701607E-01 -3.408623176647E-01 -1.947096497736E+00 -1.262380563100E+00 -1.189543726450E+00 2.685921763861E+01
 -6.731747448615E-01 1.148811525601E+00 -1.259993522856E+00 -5.992468626145E-02 -3.529531810111E-01 4.234236237992E-01 -4.152835604212E+00 -7.133078985401E+00 2.411599155979E-03 4.337069670502E-01 3.371471437230E-02 -4.622126481209E-01 -1.124027028700E+00 -9.191712839608E-01 -7.769066617396E-01 1.476287492935E+00 1.973560989160E-01 1.307320554768E+00 7.193731716649E-01 1.167454198292E+00 -1.283460346917E+00 2.530982829767E+00 -2.925400019364E+00 -1.203168049053E+00 4.631838464704E-01 -1.506005534171E+00 -7.804313761065E-01 1.893840872325E+00 -3.176970642574E+00 -3.593434078982E+00 1.094686780827E-01 -8.914601425169E-01 5.815935107158E-01 2.395805392969E+00 -8.403437798906E+00 3.587519512989E+00 -1.737640504493E+00 -4.801261481811E+00 -1.975942395612E+00 6.115916567237E-01 3.196845991152E+01
 3.225583084765E-01 1.257826484250E-01 7.303388830328E-01 4.147143294400E-01 3.489283557499E-01 -1.634947866625E+00 -1.542106013063E+00 -1.068078821958E+00 -1.022916816744E+00 3.903519141622E-01 3.141989433728E-01 -7.344177372428E-02 -2.637045889564E-01 9.010982729630E-01 1.478813036487E+00 -2.364265836822E-01 -5.589668651762E-01 -9.833472246338E+00 -1.343431565878E+00 2.222137374694E-01 -5.402781745785E-01 2.521465088496E+00 -3.133286920766E+00 -2.037382639763E+00 -1.385634129051E+00 2.043337046967E+00 2.223960751445E+00 1.657860710665E+00 -3.674492487587E+00 -2.265661093774E+00 -8.081594869980E-01 1.608910376164E+00 -9.774206074002E-01 -1.415709721011E+00 5.765005076520E+00 -3.824448167764E+00 -9.098390061087E-01 -1.013515657902E+00 -4.577305381569E+00 -1.702874906672E+00 1.149686162645E-01 2.710112906344E+01
 -4.602513683001E-01 1.047266384471E+00 -6.255268845252E-01 3.053241856330E-01 -1.042283995964E+00 1.929333414538E+00 -1.432449838749E+00 6.651734535851E+00 5.319738384023E+00 -1.898501809129E+01 9.465716334885E+00 3.898111836220E+00 -4.638608315740E+00 -5.600266707961E-01 -9.486959484472E+00 -1.964625054281E+01 -1.325825526651E+00 -9.348013530076E+00 -1.157928469476E+00 -1.809622022478E+00 -1.207748693778E+00 4.924060564333E-01 -5.207045320897E-01 3.553459515471E-01 3.310432226460E-01 2.786874309531E+00 -2.254220490038E+00 -1.395752750687E-01 3.638381095857E-01 -1.861990671040E+00 1.059185971135E-01 -2.733160137565E-01 -1.015991560725E+00 6.078182391949E-01 -1.016932090757E+00 1.263260234978E+00 2.521508504632E-01 -6.337200531651E-02 -5.381532821825E-01 -3.474557829906E+00 -2.102901289049E+00 3.258547337735E+00 5.995610085112E+01
 -2.024792414046E-01 -7.851131466998E-01 7.514818164669E-01 -7.291531650500E-01 2.217160460664E-01 -6.588256604701E-01 1.912405360283E+00 -5.233001128853E+00 -7.842651796100E+00 7.625947545631E+00 -5.504689420199E+00 -1.451948510586E+00 1.381795407350E+00 -2.440657080014E+00 3.321806492527E+00 -6.160903047905E-01 2.101007916535E+00 -6.848213007374E-01 -8.687822205815E-01 -5.707084180081E+00 -4.296011534588E+00 -3.691116530213E-01 -1.390282153439E+01 3.489814330039E+00 2.907744137664E+00 -8.742523968956E+00 3.059726511152E+00 7.918659417875E-01 2.060016989704E-02 -2.634349475891E+00 1.695973285530E-01 -6.963008877686E-01 1.415499389721E-01 -9.381717284745E-01 -2.923500917815E-01 1.822584835912E+00 1.013312246427E+00 2.024280140886E+00 -1.360485411814E+00 -5.556846139670E-01 4.247558229308E-03 6.184943707267E-01 6.853993084548E-01 5.320879558988E+01
 -1.144783159540E-01 5.048831475036E-01 7.893105703078E-01 6.044527773209E-01 -1.040036688621E+00 2.586452303494E+00 2.349136720212E+00 -5.585810514470E+00 -7.559904947463E+00 2.833503459828E+00 -1.303240151679E+00 -1.012442009286E-01 -8.016288908236E+00 1.615795954494E+00 -1.822090490406E+01 -7.947584370026E+00 -6.462100156100E-01 -2.174010484737E+00 -6.435446386303E-01 -5.067307232700E+00 -5.156353858451E+00 4.532657030337E-01 4.415019481641E+00 -5.499026397732E-03 -1.056204861460E+00 1.646461755763E+00 -5.863946023444E-01 8.973280722466E-01 -1.043605722086E+00 -1.948196133609E-01 6.381711877242E-01 1.045900244754E-02 -5.092250637290E-01 -7.386851409463E-01 9.454439482504E-01 2.830019333273E-01 -1.353440201756E+00 4.438917966964E-01 -1.183087835050E+00 4.073602780152E+00 2.495825608981E+00 -4.589890329969E+00 6.042202336212E+00 2.702460974758E+00 4.515035653832E+01
 -5.296045692051E-01 -5.298397282021E-01 5.366673450521E-01 -1.094824534574E+01 2.418068987408E-01 -5.079409174798E+00 2.358427604194E-01 -1.513579904219E+00 -7.323715679158E-01 -1.569493992303E+00 3.158183454136E+00 -3.298170543049E+00 7.430670584433E-01 -5.904225696018E-01 2.101404286468E-01 2.912140112967E+00 1.618504136982E+00 1.097068088038E-01 -2.233853337568E+00 -1.968673640478E+00 -3.250839881602E-01 1.303180220467E+00 6.865985058584E-01 7.989422352163E-02 -5.916934019781E+00 4.070708284356E+00 3.427687408522E+00 4.376562283651E-01 -1.527057018909E-01 -1.521291703555E-01 -5.318178822587E-03 6.205085923111E-01 1.775303132837E-01 -3.984568186970E-02 7.739177819752E-02 -7.123997354086E-01 -8.100304979245E-01 -4.314280177850E-01 2.023158004386E-01 -5.814361960548E-01 4.207397351208E-01 7.916399413519E-01 -4.571232295335E+00 -3.558186878652E+00 5.095472096379E+00 2.423590589051E+01
 -4.579239636703E-02 7.035318723959E-01 -4.355255376663E-01 -3.819584612509E-01 -5.510981608713E-01 -5.449854409280E-01 1.468570268210E+00 -3.108443975941E-01 -4.429449174710E-01 3.387657831307E+00 -5.861519502636E+00 5.013154935974E+00 8.123490597173E-01 -2.877962980798E-01 1.033208210004E+00 -2.874115617074E-01 1.258574461613E+00 -8.106432619219E-02 -1.759137447104E+00 -6.503369864811E+00 1.766898837200E-01 -6.302323304421E-01 -4.420238271895E-01 -3.469655199519E-01 4.303580085760E+00 -4.510677648208E+00 -1.724414907516E+00 2.148284665467E-01 -8.149534609897E-01 -9.411400993959E-01 1.469602462795E+00 -4.678891066209E-02 1.401315898221E-01 -3.414067590759E-01 -2.530850408156E-01 1.981588163462E-01 -9.391050574994E-01 -1.370148281036E+00 1.548231851335E+00 -1.523544626710E+00 -2.844439348449E-02 -7.866425947992E-01 -2.004279872646E+00 7.186967910347E-01 3.402929838123E+00 -1.722625420222E+00 1.927678357763E+01
 -7.181964520378E-01 3.584209215095E-01 -1.040962650936E+00 -6.395724476347E+00 -1.409787044620E+00 -1.911383521192E+00 2.126216832093E+00 2.517410107903E+00 1.138278779415E+00 -4.329032733104E+00 4.019379971224E+00 -3.453584607899E+00 -1.587712444903E+00 2.522623637990E-01 -2.070476911133E+00 -5.819776077048E-01 1.115119042369E+00 1.146653082993E+00 -4.149286846480E-02 1.229717357037E+00 9.664091734441E-01 2.423853110786E-01 -1.111197049747E-01 -1.372235788069E-01 3.486254076184E+00 -4.108206914202E+00 -4.004067221883E+00 -5.121530234811E-01 9.440950344493E-01 -2.886318049459E+00 -1.613413005891E-01 -1.441644129112E+00 -5.100119022052E-01 -1.326876449750E-01 -2.514094052043E+00 1.081257894664E+00 -9.480811914449E-01 -1.175134614377E+00 3.282591573395E-01 1.234215009477E+00 6.219474927467E-01 -2.187538355501E+00 8.055238351334E+00 7.506308599904E+00 -9.602083730998E+00 1.692215483354E+00 1.156034539995E-01 3.381228455136E+01
 -8.920084780110E-02 -9.146332687963E-01 2.096728959626E-01 -8.081481596386E+00 3.702839562136E+00 4.909834239649E+00 2.450191939810E-01 -4.906524742465E-01 -1.123276597705E-02 -1.460005722317E+00 2.676428047439E-01 -9.909164256324E-01 -1.679969845037E+00 -8.036665926041E-02 4.199440387074E-01 -7.750855933341E+00 8.705035680532E+00 -4.263616533805E+00 -2.066296468050E-01 1.308028451584E+00 4.661569387484E-01 -1.661231755245E-01 -6.955695598594E-01 4.375768503375E-01 -3.968221166284E+00 -8.602114363544E-01 -2.454385719597E+00 -1.658044945266E-01 5.066036254736E-01 5.140651805101E-01 -8.002768769472E-01 -1.355332478805E+00 3.947298161202E-01 -1.143017829367E+00 -9.458524070564E-01 -3.448373603196E+00 5.029689187218E-01 -2.023115419319E-01 -3.004397967561E-01 1.430951668741E+00 5.549597512217E-01 -3.238778003613E-01 1.222069237856E-01 1.364608722474E+00 -3.986851628864E-01 -8.315240863014E-01 -4.861765033046E-01 1.299968254061E+00 2.378497148471E+01
 -5.249317444182E-01 -3.359724517934E+00 -7.172344729276E-01 3.110514371174E+00 -1.151505902031E+00 -3.456801220809E+00 -1.385367638461E+00 2.501382157702E+00 1.676056124118E-01 -2.528403984026E-02 -7.555747710929E-01 3.420854425800E-01 1.980881413252E-01 -1.999113032141E-01 -1.492680695087E-01 8.124786206043E+00 -1.379440435292E+01 5.203542818946E+00 1.744683789722E+00 -2.265382405692E-01 1.380629768747E+00 6.435087618961E-01 -8.179605671868E-02 -3.773497392003E-01 5.374979273867E-01 1.025382774745E+00 -1.798410400740E-01 2.736542612001E-01 -6.074184721104E-01 -1.181614416282E-01 -3.356764722813E-02 -1.133289845108E+00 1.819086992249E+00 -2.529502045971E-01 5.952267835400E-01 3.824784558392E+00 1.008548045749E+00 -1.793760782582E+00 2.929348743212E-01 -1.159093646915E+00 -1.120750217538E+00 -6.690768684788E-01 -7.591549466914E-01 -1.363507382558E+00 -1.386297246671E+00 -1.000735042117E-01 -6.049995564832E-02 -7.341185479809E-01 -1.163057583141E+01 2.072298048547E+01
 6.328960361547E-01 -1.363612372021E-01 -9.149754668075E-01 4.713215542984E+00 -3.316136583972E+00 -1.670485994091E+00 -1.324582318158E-01 -1.198286882925E+00 -3.225390438190E-01 2.329149718646E-01 -6.801772708173E-01 -3.964138902485E-01 -1.022198746053E+00 1.286382439182E+00 -3.161815649274E-01 -5.361662181799E+00 5.754309340706E+00 -4.129580631688E+00 6.802546277103E-01 -1.610696813377E-01 -6.993818640418E-01 -1.072593412322E-01 -1.064945834728E+00 -1.763463256555E+00 -5.336098675919E-01 6.490536600705E-01 -1.210546153768E+00 3.253171034832E-01 -1.690160347953E-01 8.124121746407E-01 2.612491460649E-02 2.048379747299E+00 -1.747530667724E+00 -5.328698483599E+00 1.160487531503E+00 -1.201311514590E+01 1.224269066280E+00 -9.752147452877E-01 1.282738204050E+00 -2.691418587074E-02 8.462612327156E-01 1.200100293953E+00 4.277435748149E-01 -4.663909229670E-01 8.446614650038E-01 2.677756590244E-01 -3.437761049472E-01 4.353345209155E-02 3.128632302821E+00 -5.694509755917E+00 1.948107212900E+01
 -7.398867835166E-01 -2.741900011023E-01 -9.855480232845E-01 -3.487122465383E-01 7.296699051515E-02 -2.785434001511E-01 -2.782696078984E+00 8.771199079275E+00 -8.901855086010E-02 -1.227885721941E-01 6.389915516300E-01 2.041023954227E-01 -8.033789649898E-01 4.971777919707E-01 -7.820696147758E-01 -8.813386308972E-01 -1.229722795678E-01 1.185212655418E+00 3.083447379232E-01 -3.774607762272E-01 2.687234774005E-02 -3.984949511174E-01 -2.577125035826E-01 4.685356149241E-01 -1.504901701094E-01 1.907651709223E+00 5.916259475987E-01 -1.910172783628E+00 -1.273629460166E+00 -1.089528743392E+00 -8.196571588237E-01 -1.784794960883E-01 1.300597884265E-02 -2.658035813925E+00 -7.991859821353E+00 2.898580923457E-01 3.644402126036E-01 -2.181285221346E+00 -6.787152449836E-01 1.043570856551E-01 -4.795588700127E-01 -5.273374740250E-01 1.671112097939E+00 1.965004789123E+00 -3.234981345212E-01 -1.299988393709E+00 -1.544235309073E-01 2.278142146541E+00 4.874258916689E-01 7.749921355333E-01 5.605676509465E-01 9.458691760618E+00
 1.426289497278E+00 6.501775401994E-01 1.558132595825E-01 -5.364240655682E-01 -5.771270647883E-01 -6.181047700248E-01 5.058429995094E+00 -1.147396430315E+01 1.653100116780E+00 1.530487317922E-01 -2.280639071871E-01 -4.140501787939E-01 1.324573461710E-01 8.173712657048E-01 -1.536593353211E-01 2.550949073117E-01 2.257235398498E-02 -4.714848078541E-01 -1.057699183303E-01 1.082757592247E+00 1.086154967872E+00 -9.236401557551E-01 3.565575851728E-01 1.326532972094E-01 3.308264441084E-01 -2.964807793761E+00 -2.897216966018E+00 -2.513052053674E-01 -6.325562023841E-01 2.059021565318E+00 -6.334136613619E-01 -2.441183787208E-01 -1.488346890965E-02 -5.223503985873E+00 -1.475721684118E+01 -5.319097185192E+00 1.824350361911E-01 -4.287081843490E-01 6.944552963294E-01 9.544275236985E-01 -2.063372913346E+00 -1.433576027894E+00 -9.754098303405E-01 -1.366689379096E+00 4.286721997229E-01 5.126490644579E-01 1.346241045659E+00 -6.715715101338E-01 1.046618427327E+00 -2.038061878816E-01 2.005048275951E+00 -4.820647142242E-01 3.093693147303E+01
 1.315232417271E-01 4.847670249124E-02 -9.035770153339E-01 -5.378269078033E-01 -2.712970488821E-01 -1.367095349219E-01 -4.329243102591E-01 2.911357160294E+00 -5.594664868539E-02 5.247065617325E-03 2.140020658645E-01 -1.664758619843E-01 -3.228048222696E-01 -3.925717065836E-01 -6.454574965220E-01 4.303912998506E-01 -8.974236433604E-01 3.173194084727E-02 1.627702261916E-01 3.129035558528E-02 -1.249383890614E-01 -6.227773738502E-02 7.612438074102E-01 7.138327987714E-01 2.127548518501E+00 -4.049530726896E+00 -4.721820183501E+00 -4.086225503020E-01 1.321150508089E+00 -1.156430287560E+00 1.165524351583E-01 -2.630621955084E-01 1.333801065216E-01 -1.602361092794E+00 -4.355974293678E+00 -1.237869127454E+00 -4.950718485099E-01 -6.039180164254E-03 -5.887991397963E-02 6.219144899653E-01 1.468265204831E+00 -7.102576273454E-01 2.319913015333E-01 1.000723216002E-01 -4.479624873604E-01 -5.975209890873E-01 9.039852623242E-02 1.552032071631E+00 9.380389397599E-01 5.914617813307E-01 1.275598638532E+00 3.531803104314E-01 3.118961241724E+00 7.328261328724E+00