#BIOSYM hessian 1
@Type: Hessian Update
@Units
 distance: 	A
 energy: 	Kcal/Mol
#header
@natom 4

#label
L1      L2      L3      L4

#element
Li Li Li Li

#matrix
12
 1.440594389168E+02
 3.744168209953E+00 1.653346116467E+02
 5.156858832418E+01 -1.457875947089E+01 3.927652095179E+01
 -5.819657722476E+01 -1.050055188740E+01 -2.413640258265E+01 1.133167694056E+02
 -7.369415971164E+00 -5.686862071851E+01 9.387986358600E+00 -9.733246864873E+00 1.640251746828E+02
 -2.049120700018E+01 1.060571408807E+01 6.268682023377E+00 5.312827501958E+01 -5.182108248295E+00 5.762511117838E+01
 -4.691591055489E+01 8.697217584853E-01 -1.380574965937E+01 -3.894694538419E+01 2.755528243033E+00 -1.727163289346E+01 1.440594365706E+02
 8.697208350260E-01 -5.472114581965E+01 2.884274133201E+00 5.886662440858E+00 -5.374484540770E+01 1.088771066476E+00 3.744167419115E+00 1.653346118548E+02
 -1.380574956959E+01 2.884274670700E+00 -2.294890183184E+01 -1.362643385877E+01 2.306499411569E+00 -2.259630160778E+01 5.156858747365E+01 -1.457875968532E+01 3.927652061623E+01
 -3.894695113714E+01 5.886661918961E+00 -1.362643608216E+01 -1.617324679666E+01 1.434713459300E+01 -1.536543512594E+01 -5.819658063149E+01 -1.050055069500E+01 -2.413640404528E+01 1.133167785653E+02
 2.755526926186E+00 -5.374484510858E+01 2.306498979085E+00 1.434713631141E+01 -5.341170855654E+01 -6.512376906255E+00 -7.369417420633E+00 -5.686862062745E+01 9.387985603052E+00 -9.733245816967E+00 1.640251742926E+02
 -1.727163175441E+01 1.088770712113E+00 -2.259630114333E+01 -1.536543857817E+01 -6.512377521874E+00 -4.129749159398E+01 -2.049120492081E+01 1.060571448564E+01 6.268682823396E+00 5.312827525339E+01 -5.182107675882E+00 5.762510991391E+01

