#BIOSYM hessian 1
@Type: Hessian Update
@Units
 distance: 	A
 energy: 	Kcal/Mol
#header
@natom 19

#label
L1      L2      L3      L4      L5      L6      L7      L8      L9      L10     L11     L12     L13     L14     L15     L16     L17     L18     L19

#element
Li Li Li Li Li Li Li Li Li Li Li Li Li Li Li Li Li Li Li

#matrix
57
 4.779577202460E+03
 1.044632452727E+03 2.359654232927E+03
 -1.594905079185E+02 4.743665601284E+01 9.183435103500E+02
 -1.490098233015E+03 -1.384604686405E+03 -3.462656544425E+01 2.200832935603E+03
 -1.622698830612E+03 -2.034623291197E+03 1.062892209690E+02 5.454147714915E+02 5.096838546407E+03
 1.331376033557E+02 1.327597650300E+02 -1.628965798699E+01 -2.867477080078E+02 -5.628254413271E+01 8.813740921733E+02
 -8.358303857296E+01 1.628349804529E+02 -4.096549095071E+01 -6.656519065224E+02 1.220813945717E+03 5.602820477400E+01 3.956900897791E+03
 -1.077034964117E+02 1.680001606199E+02 -7.426667732485E+01 9.398698113431E+02 -2.849078279723E+03 -1.995874096564E+02 -1.638618385134E+03 3.322890978311E+03
 2.627486535436E+00 6.310056072298E+01 -1.596131366423E+01 -3.024856322582E+01 -9.854213522101E+01 -1.423181612153E+01 -9.988904314301E+01 -9.899258983644E+01 8.807384384670E+02
 3.501970806957E+01 -1.085202160035E+02 3.506434707984E+01 9.888832661000E+01 -4.599605115064E+00 1.066871454998E+01 -3.166695742094E+03 5.655747513438E+02 1.686152922344E+02 4.763697184986E+03
 -1.001829963397E+02 2.524541189494E+02 -5.198059497770E+01 -2.645863437393E+02 4.676465713090E+01 1.289823590666E+01 3.274127647579E+02 -2.968281652367E+02 -2.739964850640E+01 1.054624641318E+03 2.380480567270E+03
 -3.142869653015E+01 4.783381506369E+01 -1.065722902618E+01 -4.159496684183E+01 -9.301828496967E-01 -1.067807938057E+01 -3.458687804725E+01 -3.739632986883E+01 -1.312063528876E+01 2.129220818471E+02 -3.152671167487E+01 9.283730039831E+02
 8.549084681399E+01 -2.660475670664E+02 4.814317460660E+01 3.272186789132E+02 -5.916212547494E+01 -3.185653375071E+01 1.882524556039E+02 2.281069773324E+02 8.199484521268E+00 -1.488742873004E+03 -1.397811186690E+03 2.747720712188E+00 2.205475568580E+03
 -3.768917879584E+00 4.947631584850E+01 -3.909788085703E+00 -7.071163353270E+01 2.885286291441E+01 -1.478754652166E+01 -2.452010968242E+01 -5.679379436821E+01 -6.629703033616E+01 -1.620283556966E+03 -2.057968383464E+03 -1.348705060308E+02 5.562879012802E+02 5.142660995075E+03
 -1.280699665310E+01 -9.364622183595E+00 -1.313769743356E+01 2.883319740774E+01 1.316323347240E+01 -1.189060084359E+01 1.791913619006E+01 8.023764907953E-01 -1.078816453699E+01 -1.511269950152E+02 -1.558138802388E+02 -2.151235671856E+01 3.009743917257E+02 9.608874887926E+01 8.794358449267E+02
 -3.179338632334E+03 3.380701150423E+02 -8.185720878801E+00 1.885138661593E+02 -2.063512314131E+01 -2.269332879517E+01 1.455322673951E+02 1.575241511766E+02 2.108518630820E+01 -9.201930738404E+01 1.577699875084E+02 3.313848576524E+01 -6.577342288564E+02 1.231442511127E+03 -4.838895936745E+01 3.985018269135E+03
 5.633012615963E+02 -2.983952510229E+02 4.536989501687E+01 2.306279440394E+02 -5.450198920201E+01 -4.188386554390E+00 1.561687554425E+02 1.915805346939E+02 3.692548221062E+01 -1.143572889953E+02 1.595513133796E+02 6.741915193128E+01 9.516125021237E+02 -2.857763876275E+03 1.817662659207E+02 -1.647988330223E+03 3.338079122478E+03
 -2.101499271042E+02 2.588103127214E+01 -1.260513280156E+01 3.490572890088E+00 6.471412240287E+01 -7.879595409244E+00 -1.519930390981E+01 -3.175848911939E+01 -8.316153913447E+00 -8.794296011066E-01 -4.939982301648E+01 -8.008235581837E+00 1.826825403126E+01 7.773785676994E+01 -1.355769731350E+01 1.292330439103E+02 1.034806588946E+02 8.923544456063E+02
 1.310545103748E+01 -5.384018369420E+01 1.195814841143E+01 6.355202947975E+01 -3.627135624551E+01 -6.916817663051E+00 1.709460087104E+01 6.894158833207E+01 -2.264164005102E+00 -1.393030297178E+02 1.037159038693E+02 -2.308231057869E+02 -5.685767999975E+01 -6.887788640355E-01 9.497486595479E+00 -4.159073910036E+01 -3.320237863152E+01 2.028277383514E+00 4.531201051755E+02
 -4.911011620264E+01 1.084695601251E+02 -3.048581854698E+01 -1.148490785350E+02 3.989524090127E+01 5.975753402699E-01 -8.173856658283E+01 -9.706940611851E+01 -1.546510652040E+01 1.034712825090E+02 -1.089604615902E+02 6.052827669675E+01 1.004668306666E+02 -1.621555706098E+02 9.928060659441E+01 9.098237296989E+01 9.627009152359E+01 -1.031621794567E+01 -1.047807345701E+02 9.438817271944E+02
 -1.230964060146E+01 1.075818249997E+01 -7.276801324268E+00 -2.104669089702E+01 1.352033873357E+01 -4.399836649000E+00 5.623759873403E+01 -3.667131151909E+01 -6.694727472507E+00 -2.879372227694E+02 8.280015496880E+01 -4.569982675097E+02 2.142978701057E+01 9.789884295751E+01 -9.050560074064E+01 2.852378188767E+01 -4.562547682487E+00 -4.383418730508E+00 2.333738964955E+02 3.444189171930E+02 1.192522415177E+03
 6.222050782223E+01 -1.558302040181E+02 2.720225043298E+01 1.435937320418E+02 -3.434833885513E+01 -1.645839996820E+01 1.228906135900E+02 1.007213994448E+02 3.997783799935E+00 -6.399258672393E+01 1.289783523237E+02 2.762283150420E+01 -2.036186868694E+02 -4.955976265537E+01 -2.005250040523E+02 -1.955707637155E+02 -5.323597147281E+01 -8.845649219317E+01 1.137524730972E+01 -7.819398191934E+01 2.543652387589E+01 1.003616909889E+03
 5.646208301575E+01 -4.178694152500E+01 1.341609496116E+01 4.277283838737E+01 -2.211405193835E+01 1.858799919096E+00 3.926761274917E+01 3.469847178217E+01 7.297920477478E+00 1.124940378228E+01 7.416474682635E+01 1.922214036432E+01 -1.728659936117E+02 -1.194674911851E+02 -2.206219950490E+02 -3.775278452925E+01 -4.245340156162E+01 4.229377857950E+01 -7.138983627766E+01 -1.504300890186E+02 1.330460719910E+00 1.858695211245E+02 7.697624115078E+02
 4.271124948244E+01 1.495385942129E+01 1.637368685178E+01 -2.872969397632E+01 -7.742389374393E+00 1.623589929324E+01 -2.625697114608E+01 -1.173512469693E+01 1.420510409387E+01 3.321649200059E+01 -8.969884210565E+00 2.833168757114E+01 -1.551770864664E+02 -2.512153388177E+02 -3.826564492659E+02 -1.229671017137E+02 6.340460143024E+01 -9.861133911684E+01 -3.784385079934E+00 4.755354252058E+00 8.256706162364E+00 -1.912880560785E+02 -4.174232907287E+01 1.078439453550E+03
 -1.994496176602E+01 2.802166311432E+00 -7.123118159916E+01 -2.697656724773E+01 -6.426125269773E+01 -8.719137659228E+00 -7.487392756400E+00 2.086957560894E+01 -1.620014188397E+00 -6.578978838863E+00 -5.655286239612E+00 3.032786513400E+00 1.053814184862E+01 -1.710775929011E+01 -1.451375965220E+00 -4.437077090110E+01 9.978996526152E+01 1.158306724506E+02 8.477581100727E+00 -9.956790389798E+00 5.713077316321E+00 -7.802357723401E+01 1.015193788515E+02 -1.057564436512E+01 4.137539810218E+02
 5.384093517832E+00 -1.508313600093E+02 -2.399669438542E+01 1.305127587620E+02 -2.958358425909E+01 -2.733723857330E+00 9.667538398286E+01 8.888091650730E+01 1.340242947698E+01 -4.322752301305E+01 1.171784798596E+02 2.981402794107E+01 -1.112670313572E+02 2.615711692190E+01 1.896970602740E+00 -1.554783152202E+01 -2.631215665238E+02 -2.587786627454E+02 1.565539310702E+01 -3.731905830815E+00 3.413369859966E+01 1.375901627138E+02 -9.614207249773E+01 5.678523414251E+00 -1.203321908928E+02 8.629994123065E+02
 -1.352116255348E+02 -7.855727395449E+01 -1.160933000784E+02 2.869699719050E+01 6.301849506396E+01 -1.033028294616E+01 -8.078092350021E+00 -2.566162897959E+01 -1.090066120659E+01 -2.050304773648E+00 -3.410684193310E+01 -1.001643300829E+01 2.665322301802E+01 6.401164851304E+01 2.933674857380E+00 1.441784650917E+02 -2.788162706378E+02 -4.099860691383E+02 2.192792876506E+01 -2.817660484842E+01 3.447667771864E+00 1.886607197538E+01 3.828372123536E+00 1.166182162798E+01 1.108168382837E+02 -9.648581653651E+01 1.200757214441E+03
 -1.428756374434E+02 1.031602119007E+02 2.322882992216E+02 -5.964201647316E+01 6.636627295496E+00 -3.414490742452E+00 -3.989065865367E+01 -4.150345064231E+01 -5.404603916870E+00 1.561823252139E+01 -4.469699422218E+01 -1.006066348997E+01 5.424650938920E+01 -4.370584239489E+01 4.166143057505E+00 1.303718432332E+01 6.441317881555E+01 8.045245206459E+00 -1.873899814616E+01 1.322164635455E+01 -1.762921878093E+01 -3.810228867284E+01 6.614944297503E+00 6.749830148899E-01 -1.861504889157E+02 -6.350687890239E+01 -3.208726220957E+01 4.633914623486E+02
 8.453434822463E+01 -1.215493896098E+02 -5.909013772908E+01 1.098428090881E+02 -1.479715143796E+02 -1.056157151666E+02 9.859043195900E+01 1.021992620238E+02 1.573452481553E+01 -5.300393107793E+01 1.068726708143E+02 2.785425580416E+01 -1.111566927332E+02 3.873738542634E+01 4.987041541082E+00 -7.676918591849E+01 -9.099299132055E+01 1.048727884084E+01 3.390494308701E+00 1.738558822327E+01 2.080525794929E+01 6.413967165633E+00 -1.482284167958E+01 -6.714162751160E+00 -4.143877168558E+01 -1.800968858548E+01 9.224513931549E+00 -1.044491042502E+02 9.723113612763E+02
 3.044082265775E+02 -6.555910412018E+01 -4.435243545332E+02 -2.482717893880E+01 -9.685456557225E+01 -9.354378970751E+01 -2.927707410170E+01 -4.908202577189E+00 -2.104087996950E+00 1.207634380613E+01 -2.372564206129E+01 -1.178557145423E+00 3.282310873276E+01 -1.741798788165E+01 -3.282386044030E+00 -5.810405054774E+01 5.351734963089E+01 -3.749562130854E+00 1.992782880392E+01 -3.457573433041E+01 7.619109246147E-01 5.965832381280E+01 7.681322464918E+00 -5.548869424502E+00 2.996526015768E+01 2.806386986590E+01 3.274568352224E+01 -2.332678337744E+02 -4.431935205759E+02 1.351231398436E+03
 -6.490378737058E+01 1.537653150732E+02 -2.409182806036E+01 -2.245761596408E+02 -4.675979754798E+01 2.111902862911E+02 -2.054656314134E+02 -7.416385205467E+01 8.893437301387E+01 7.090124575882E+01 -1.585271687434E+02 -2.162959452543E+01 1.498260763726E+02 -4.239038965446E+01 1.604296157377E+01 1.292131631846E+02 1.052208615057E+02 1.159833193909E+00 -2.607707018024E+01 1.286397951609E+01 -4.169199704609E+01 -3.125534145320E+01 1.885886198326E+01 -2.134999744415E+01 -2.567576032602E+01 -2.806065603420E+01 -3.690630015528E+01 1.168362545336E+01 -5.378583135997E+01 -4.190930646382E+01 1.078142579602E+03
 8.092322440072E+00 6.770893356324E+01 -1.512560145252E+01 -1.645075682815E+02 -1.150079491628E+02 2.130092032042E+02 -2.570589783902E+01 -4.186707228282E+01 -4.233523704300E+01 5.001286506836E+01 -3.512941780203E+01 -1.254935429099E+01 3.512272257554E+01 -1.880408712406E+01 -2.013226726063E+00 3.804466353604E+01 2.680147264152E+01 -5.660453131156E+00 3.049857156532E+00 -6.254971028877E+00 -1.123287647859E+00 7.313926698229E+00 9.751633050968E+00 -6.258910672530E+00 -1.017395135554E+01 6.738993425994E+00 -1.404327257170E+01 -6.968039771550E+01 -1.522053521145E+02 -1.371744393532E+01 1.248734220725E+02 8.284447662195E+02
 -4.320780588387E+01 3.075714064836E+01 2.260803786792E+01 1.429412594600E+02 2.508672880943E+02 -3.832049029499E+02 1.085163671432E+02 -7.844642071581E+01 -9.486630431077E+01 -3.755787907697E+01 -3.897803052876E+01 1.581479274276E+01 5.930938810199E+01 4.232068265638E+00 2.241781604294E+01 4.529676280594E+01 3.153053391031E+01 9.012696626475E+00 9.647420118374E+00 -6.990509184281E+00 -1.232920390080E+00 4.398494758701E+01 7.559774724650E+00 -2.543365605135E+01 -6.924524171926E+00 1.642696943091E+01 8.249418299027E-01 -2.316941061302E+00 9.193855022424E+00 7.918991955785E+00 2.767112445394E+02 -5.938992781870E+00 1.182797451582E+03
 -2.271997663872E+00 -1.280055988548E+01 -2.026599934880E-02 1.717340553824E+01 -1.498727022633E+01 3.358483873212E+00 -3.134355608181E+01 9.886253508588E+01 -1.153569767298E+02 -3.315920211259E+01 7.296341316814E+00 7.147415527241E+01 -3.467434343241E+01 -6.239296409529E+01 8.033382385683E+00 -1.572867117662E+01 1.454506708294E+01 4.580908661360E+00 -1.935579678801E+02 -2.806928844157E+01 -3.235276863188E+01 -3.661401239132E+01 -9.474294706857E+00 2.591983558237E+00 -4.117154437100E+00 -2.740613097504E+01 -7.876769803426E+00 1.541801928564E+01 -1.550829343263E+01 -1.057568663053E+01 -6.853349502402E+01 1.072434819764E+02 5.590204811121E+00 4.516848993440E+02
 -4.666990452974E+01 1.363384562195E+02 -3.273395008060E+01 -1.350373192882E+02 3.163421102903E+01 3.243371006363E+00 -2.680746971117E+01 -2.854595852241E+02 2.544845417075E+02 1.709173112010E+01 -1.544702707098E+02 2.780855439652E+01 1.359023263479E+02 -3.606499944326E+01 -5.280231348253E+00 1.044126792879E+02 9.275511385482E+01 -9.559867744037E+00 -4.538387715544E+01 -2.212199802433E+01 -8.576626704240E+00 -1.546085704149E+01 1.757634303893E+01 6.229293628547E+00 -1.355449969632E+01 2.916323428918E+00 -2.959450311574E+01 5.360790131955E+00 2.461355340857E+01 -4.150292779752E+01 9.895203735142E+01 -9.325394890317E+01 -1.672206964640E+01 -1.845003642274E+02 9.430182894775E+02
 -8.893224344029E+00 5.899634462530E+01 -1.114604630988E+01 -5.057180502300E+01 -5.646816393842E+01 2.141911501510E+00 -1.594583429976E+02 2.640832612851E+02 -4.036818039244E+02 1.529133522490E+02 5.669141801796E+01 -1.033126420818E+02 -2.957018524889E+00 -6.847381126026E+01 -1.071064669295E+01 2.649230069112E+01 4.850945387609E+01 -9.662014658041E+00 3.946030495472E+01 -3.315835584371E+01 3.544470829358E+01 6.924712010427E+01 1.908945242416E+01 -6.194703824850E+00 7.694236616877E+00 5.145032553898E+01 -4.034747130721E+00 -3.357110046059E+01 4.267131924404E+01 2.102287272010E+00 -4.839068236907E+01 -1.273670322796E+01 8.154884155587E+00 -2.133328464093E+02 2.415385513686E+02 1.405362567271E+03
 4.702900145855E+01 1.311790256457E+02 -7.973200551965E+01 -3.822188959343E+02 9.477486670744E+01 -1.803014846637E+02 -1.523674146201E+02 -2.116006337949E+02 -1.293102505478E+02 4.149634177733E+01 1.314829294141E+02 7.935216603571E+01 -3.802185666770E+02 9.295293965738E+01 1.784341428683E+02 -1.575792440919E+02 -2.086970840069E+02 1.261552070533E+02 -5.943174691604E+01 7.264370635421E+01 -3.741648872775E+01 -1.447979492080E+02 -4.059546847260E+01 -4.988706694929E+01 -8.027688697741E+00 -3.616884723223E+01 -2.271754592077E+01 -5.996493256048E+01 7.037947381517E+01 4.320619983361E+01 -1.411993088175E+02 -4.008618951029E+01 5.074019043520E+01 -7.488537800703E+00 -3.271085131710E+01 2.465343888215E+01 1.514382998659E+03
 1.004288056477E+02 -3.194844761952E+02 2.162363001950E+02 8.768472676166E+01 1.757517751512E+01 2.656060322510E+01 -1.959400222759E+02 -1.789246578897E+02 -1.676195922344E+02 1.061858113124E+02 -3.096593294030E+02 -2.083983548027E+02 7.789557869189E+01 1.520538986509E+01 -1.736075155771E+01 -2.028523374984E+02 -1.838559921991E+02 1.694738153561E+02 7.877531859605E+01 -8.574964780504E+01 4.097996171579E+01 -4.649976909018E+01 -1.552135790199E+01 -1.235445856804E+01 -4.064526597056E+01 -1.603162656250E+02 -5.199348734635E+01 8.943238964014E+01 -9.761409132950E+01 -4.358746833148E+01 -3.214340524856E+01 -1.330850139898E+01 2.925014360946E+00 -3.604845599223E+01 -1.427124279146E+02 5.172345426670E+01 -1.828194248512E+01 1.541150668762E+03
 -1.359131703268E+02 2.788959466100E+02 -2.100943039693E+02 -3.382249378476E+02 8.529823740073E+01 -1.732459961956E+02 -2.274255358114E+02 -2.651763210356E+02 -2.035746135182E+02 1.539355088450E+02 -2.816846033287E+02 -2.156049758718E+02 3.252755519647E+02 -8.802835413896E+01 -1.733384888931E+02 2.357801189577E+02 2.454075780261E+02 -2.030689487180E+02 6.826357986869E+01 -1.189713979983E+02 -1.889279511814E+01 1.166378149306E+02 1.186291379443E+01 2.986068225468E+01 2.483694024466E+01 1.254916340730E+02 -4.053021408716E+01 -7.946079734485E+01 1.065996999547E+02 -1.824574810476E+01 -1.082380294607E+02 -2.559898161474E+01 4.762216228804E+01 -2.329438809471E+01 -1.295157190642E+02 -3.472787209582E+01 2.021058575486E+00 -1.329393814421E+01 4.466906688628E+03
 1.073338176627E+01 6.887013589432E+01 1.194506166406E+01 -1.008677261734E+02 2.591744074652E+01 -1.617307694853E+01 -5.734305288052E+01 -7.616959275054E+01 -2.234923071161E+01 3.996029706073E+01 -1.884517311762E+01 -1.053841596664E+01 -4.887789934276E+00 1.079213258432E+01 2.699284263642E+01 8.414360586456E+00 -1.235324911226E+01 1.825908655353E+01 -2.885292375347E+01 1.845286365225E+01 -6.822443083562E+01 -1.775770083499E+01 -1.463412699499E+01 -4.420590439123E+01 -1.643570844541E+01 4.692790139280E-01 -3.887293305782E+01 -5.455381028729E+01 8.079916389940E+01 7.884891972176E+01 -1.154705147123E+02 -2.250169165592E+01 1.436582483851E+01 -2.119620045450E+01 -6.246059550528E+01 3.838369015920E+01 -7.762167149605E+01 6.657546770936E+00 4.466004396546E+01 4.448170795868E+03
 -6.693306397975E+00 -1.521100583580E+01 2.921923220861E+00 -1.011924978965E+01 1.867770208042E+01 1.312532824353E+00 -3.635652519137E+01 -2.751912223969E+01 5.327736712562E-01 1.441287428904E+01 -5.755338462723E+01 -4.485048145625E+00 4.006173449137E+01 1.111144346296E+01 1.056394706145E+00 -3.679285033569E+00 5.702171529532E+00 -3.602828175630E+00 2.307357340986E+01 -7.375115954087E+01 3.162719630212E+01 7.472065366751E+00 -7.710575520374E+00 2.879285595376E+00 1.572755681597E+01 -5.734576048991E+01 -6.221881000621E+01 -9.396016078162E+00 -4.076763846717E+01 -3.297053214698E+01 -4.525495171963E+01 -1.389681271242E+01 -5.052593735917E+00 1.817248576620E+01 -9.634243848600E+01 5.437146740472E+01 -5.006247736338E+01 -2.595851897243E+00 5.591167860667E+01 1.765235563254E+02 2.870623595378E+03
 2.588207336038E+01 9.212966797855E+00 2.045969089328E+01 3.355708215877E+01 -4.138056274103E+01 2.684939263433E+01 -2.146044927012E+00 5.313381118481E+01 3.016437575610E+01 -3.575490844622E+01 -1.014813435343E+00 1.877174074066E+01 -2.604521092810E+01 5.422494570983E+01 3.679215538457E+01 -2.463279118693E+00 -4.664802316711E+01 2.901883043710E+01 -6.664541989925E+01 1.158790836385E+02 2.144316001593E+01 -1.493204071189E+02 -2.981964799731E+01 -5.095453897710E+00 -2.993741968333E+01 -1.169223468303E+02 3.500447875244E+01 7.587530496968E+01 -9.637326401975E+01 5.245153678979E+00 1.411562067018E+02 3.523572618613E+01 -1.028678048078E+01 3.153567970136E+01 1.082604761667E+02 1.434493678829E+01 3.459336119939E+00 1.031807041155E+01 -2.993550568269E+03 8.458369959019E+01 4.249425603412E+01 3.272890481883E+03
 -2.157052750538E+01 5.766091867711E+01 6.343648127682E+01 -1.691001802429E+02 2.577090549085E+01 1.803324560062E+02 -7.797306186802E+01 -8.694225613131E+01 1.200803040190E+02 -1.882846940701E+01 5.387800692187E+01 -6.062562529220E+01 -1.607139924509E+02 3.001268287560E+01 -1.803203605584E+02 -7.231820719445E+01 -8.361295496417E+01 -1.202268727335E+02 -3.661756589431E-01 2.230196557043E-02 2.011197520966E-01 -9.073721725458E-01 -1.993387572410E-01 -2.756255061107E+00 -1.403888039575E-01 -1.024708297672E+00 1.057518139291E-01 7.596864046036E-01 -2.988257629310E-01 -1.055319679324E+00 -1.414826547037E+00 -5.221495573861E-02 -2.740268465926E+00 -2.597244886021E-02 8.386040368423E-01 -7.188966000206E-01 -1.150754341812E-02 5.089050729689E-01 8.189117051085E+00 -4.926481600972E-01 -2.694322166119E-01 -6.690022103506E+00 5.213044045428E+02
 5.872993810161E+01 -1.553902715244E+02 -1.690477822938E+02 3.041375183701E+01 -4.105109746189E+00 -2.997707860833E+01 -8.750083559605E+01 -9.857052379483E+01 1.368577409331E+02 5.460632868495E+01 -1.545480153174E+02 1.720906511853E+02 2.707487045339E+01 -6.176293415027E+00 3.217018714600E+01 -8.683832248847E+01 -9.629146871025E+01 -1.373006972383E+02 1.647909726472E-01 -4.611658599041E-01 -2.255466569730E-01 1.787431617776E+00 2.809264250129E-01 1.651351518335E+00 7.418996131657E-01 7.830512215654E-01 -1.068463772418E-01 -9.248131337819E-01 4.921472309929E-01 2.067384426826E+00 -1.108866166171E-01 -5.716430592366E-02 1.110855428028E+00 -3.189521696990E-01 -8.866997104590E-01 2.215816238448E+00 -1.737638732760E-01 -2.220966945717E-01 -1.485088982342E+00 6.043071030647E-01 5.379134294755E-01 9.088731114244E-01 3.119339843956E+00 5.150045580550E+02
 1.802516199048E+01 8.255016954356E+00 -2.123992633135E+02 3.366307261706E+00 -8.838901717981E+00 -1.626315860670E+02 -2.192894536178E+01 3.099163514019E+01 -1.861515906517E+02 -9.110185103117E+00 2.739730931278E+00 -2.152938326902E+02 -1.477349707954E+01 1.313583724526E+01 -1.760348362647E+02 1.909072494294E+01 -4.325827631890E+01 -1.887038138294E+02 -5.927402739909E+01 5.372285817133E+01 -4.922111491637E+01 -8.729545394101E+01 1.836142673255E+01 -5.490133055671E+01 -3.666763795203E+01 -8.965117822973E+01 -4.089251177510E+01 6.426987677367E+01 -2.943028162309E+01 -7.364261913029E+01 4.660056148285E+01 -3.350277187406E+00 -9.272725003938E+01 5.498559759097E+01 4.778311790396E+01 -7.724160012318E+01 3.330437053151E+00 1.061127318411E+01 -1.795182165364E+02 -7.281315344434E+01 -3.893327386605E+01 7.529400443345E+01 -3.814321869577E+00 -6.303130407568E+00 1.319537279114E+03
 -9.090767879990E+00 4.777885544657E+00 -1.070058837330E+01 -9.062883208265E+00 -6.547018585416E+00 -9.391032229014E+00 4.553746422368E+00 1.104857800273E+00 -1.474713406342E+01 -2.181360540294E+00 2.299370746706E+00 2.397195107331E+00 3.985516092984E+00 -9.380612296283E+00 -9.462488783742E+00 7.735594255688E+00 1.320019982630E+01 -2.428513558587E+00 6.039024033502E+00 6.063038212329E+00 2.955550869742E+01 -9.804315828402E+00 7.284465005450E+00 1.717187650937E+01 5.932440797907E-01 6.929284829253E+00 2.196359009649E+01 -2.488043297812E+00 -3.019478580345E+00 1.556709256396E+01 -3.912068571860E+02 2.034602552509E+02 -3.666293309709E+02 -6.300740074444E+01 1.722678326015E+02 1.928986498641E+02 6.323192051399E-01 -1.081601247760E+01 -2.121690161623E+01 -4.554704595124E+02 -6.651130091674E+02 1.719403768923E+02 1.177509343881E+00 -3.287269516677E-01 3.672308810517E+01 1.025863337596E+03
 -2.420051404639E+01 1.148719737260E+02 -1.108293189350E+01 -1.114461983766E+02 1.004998070715E+00 3.416282018881E+01 -9.037307970632E+01 -6.976101022525E+01 -9.346297671238E-01 2.363692466256E+01 -9.780894232230E+01 -2.452351135579E+01 1.112257202727E+02 -2.499763800153E+01 1.578788719849E+01 7.881105973841E+01 7.969507784992E+01 -7.557195792188E-01 -7.329393579812E-01 -1.313243416248E+01 -4.198680607408E+01 1.161092942594E+01 1.023313741585E+01 -9.855191967615E-01 -2.311245765574E+01 2.278571973240E+01 -4.155725052285E-01 3.358760822990E+01 2.688095421795E+01 -8.882476903650E-01 1.816669249162E+02 -1.101640025948E+02 1.402939274419E+02 1.708820689190E+02 -4.646089215375E+02 -6.993988584478E+02 1.338047434904E+01 -2.392495388815E+01 2.493649862740E+01 -6.114290700512E+02 -8.587450592344E+02 3.145939766067E+02 -2.053388586092E+00 2.476610469624E-01 -3.862040894747E+01 1.994707573863E+01 2.341391012717E+03
 6.242149618273E+01 -1.465028466508E+02 2.661421879805E+01 1.517886670944E+02 -7.862982375650E+01 -5.811916817129E+00 1.088958364026E+02 1.434398770198E+02 5.317040268122E-01 -8.460173633434E+01 1.476330529836E+02 1.105954749597E+01 -1.594376981883E+02 4.833945729924E+01 3.939161922953E+00 -1.120391182946E+02 -1.290355400200E+02 1.475620764220E+01 -3.926382628099E+01 5.637596757565E+01 -5.611285492781E+00 -5.466665658509E+01 -2.053004860686E+01 -1.735698020678E+01 4.826793638605E+00 -5.695603090214E+01 -5.818401691583E+00 1.124080885975E+01 -6.626443058337E+01 1.663962918810E+01 -3.034515335458E+02 2.301066644639E+02 -3.273816912532E+02 2.495386007346E+02 -5.776170095191E+02 -8.638424265781E+02 -1.104683177144E+00 3.529351477833E+01 -2.165044051679E+00 4.575004571850E+02 4.542435006906E+02 -1.153427133420E+02 1.788135414914E+00 -1.705621277022E+00 9.126154421822E+01 -1.220360155618E+02 7.992413949353E+01 1.464165047906E+03
 3.713189950834E+01 -1.262436077316E+02 4.610864314578E+00 1.292008758391E+02 -2.683825088968E+01 -1.099819413829E+01 9.437824439155E+01 9.680657919793E+01 3.835185665424E+00 -6.432594679288E+01 8.930251301421E+01 3.498785539277E+00 -1.015336005257E+02 4.122780431190E+01 3.268824714651E+00 -8.500420498562E+01 -9.895734425416E+01 -2.110170926225E+00 -8.128184350256E-01 7.293518720961E+01 1.241948402109E+02 -2.299206485848E+02 -2.612192624744E+02 2.779409640820E+02 1.633913809325E+01 -4.428253400244E+01 1.259265026475E+00 1.026126573499E+01 -5.269372694265E+01 -2.751629100188E+01 4.734365889130E+01 1.085175196245E+01 2.092688661494E+00 3.590815702283E+00 3.365343014531E+01 1.076645134578E+01 -2.146352992958E+01 2.515926342396E+01 -4.426810097442E+01 -1.685232899666E+03 7.297738350417E+02 -3.654487201083E+02 1.056526362947E+00 -1.355946095230E+00 7.316871966167E+01 -6.055430382641E+01 2.932040949912E+01 -1.164946318400E+02 2.043529921023E+03
 -5.138691144398E+01 1.300240641756E+02 -1.215133250699E+00 -1.429876412652E+02 1.972542785958E+01 2.474289385541E+01 -1.078425697748E+02 -9.571775548160E+01 8.098977045139E+00 3.220881221185E+01 -1.325628622227E+02 -6.886851538173E+00 1.413251153909E+02 -3.248638265748E+00 2.700192036508E+01 1.193154529356E+02 7.649934468379E+01 1.776950877755E+01 3.832516609939E+01 -5.640855019170E+02 -5.846998504200E+02 -1.748985396048E+02 -3.080894995214E+02 3.103888787711E+02 -9.059790307945E+00 3.511467039484E+01 -1.200554172367E+00 -1.210459822615E+01 4.561445891673E+01 -2.068687619583E+01 -8.155660146986E+01 -2.652041430024E+01 -4.442520598823E+01 2.373221419158E+01 -4.023143773427E+01 -5.286917334927E+01 1.562684385730E+00 -6.529194666005E+00 9.725481633083E+01 5.677709380382E+02 -2.874747223796E+02 1.353758147600E+02 -1.549966294377E+00 1.552858529789E+00 -1.388939104896E+02 -5.195436913428E+00 -2.626399078184E+01 6.782974554645E+01 -7.907475444212E+02 2.314349002176E+03
 6.099632552875E+01 -1.318228091061E+02 2.440157619688E+01 1.476876421718E+02 -5.137488135446E+01 -1.496299024130E+00 1.062166187520E+02 1.208879947117E+02 1.629910136127E+01 -4.767417951792E+01 1.380231703405E+02 2.303569144161E+01 -1.634782497837E+02 6.274880262270E+01 -3.360418388854E+01 -1.061953429958E+02 -1.146757124630E+02 1.131575197730E+01 2.342892366026E+01 -5.556248577919E+02 -6.223374002895E+02 2.207014042494E+02 3.357906435354E+02 -3.611268413105E+02 1.779707548701E+01 -5.206112548618E+01 1.070329757300E+01 1.801981091114E+01 -4.364806043614E+01 -6.324680388292E+00 3.783804730968E+01 2.039849126814E+01 -8.175999324593E+00 3.492755725970E+00 5.447872640872E+01 2.520050700933E+01 -5.449632280050E+01 2.335549072681E+01 -5.098081833589E+01 -6.749395328884E+02 2.270329342310E+02 -1.425676304977E+02 1.630090886496E+00 -8.872983561215E-01 7.659124331951E+01 3.297520814962E+01 6.800874423747E+01 -9.697606533035E+01 2.242099641666E+02 8.249640204107E+01 1.308608402502E+03
 1.315858715050E+00 -9.026139772054E+00 -6.142032408030E-01 1.894191527253E+01 -1.250378270051E+01 5.448536536267E+00 1.511859713513E+01 2.325325071542E+01 6.929356771761E+00 -1.709972255530E+01 1.086765541138E+01 1.083864356228E+01 -1.339251978469E+01 2.264144634807E+00 8.042850733860E+00 -4.403690169269E-01 -3.960098575827E+00 1.533197272601E+01 -1.224620653699E+01 3.577999331629E-01 -2.683786209850E+01 -2.999823957636E+02 1.288367265056E+02 2.675719792216E+02 -3.177575508786E+01 9.348212873913E+01 -9.568359383772E+01 1.536326634193E+01 -5.384463612075E+00 -3.111981008355E+01 5.897577664511E+00 7.144684344333E+00 -1.798736812686E+01 1.452122309366E+00 2.272594510317E+01 -3.254229989109E+01 4.473048450241E+00 -1.744817215697E+01 -7.929153404065E+00 -5.499154195869E+02 -7.898435946217E+02 -2.165023984029E+02 -2.725719470890E-01 -7.570852884605E-02 -5.852339631676E+00 4.926588576803E+00 -1.209803612920E+01 -6.588528368812E+01 -1.065725876750E+02 4.387708805976E+02 3.341697417688E+01 1.012071302542E+03
 5.455572691985E+01 -1.585770953517E+02 1.906544505784E+01 1.793025148057E+02 -2.983512754972E+01 -2.382890113515E+01 1.329869822643E+02 1.291522960125E+02 -6.558412449583E+00 -4.671441313349E+01 1.786055115234E+02 1.114555771914E+00 -1.820917862219E+02 2.681542009539E+00 -4.421085491958E+01 -1.457942956253E+02 -1.061912170964E+02 -5.505486795095E+00 1.886367758517E+01 6.255523199757E+01 -8.472393505648E+00 4.486380952478E+01 -8.178748926705E+01 -7.484044787106E+01 8.599464422152E+01 -3.660304333521E+02 5.209658392902E+02 2.208317679854E+01 -5.058565097712E+01 4.747423937691E+01 9.023325739885E+01 2.800420379100E+01 3.193595047827E+01 -3.003910942368E+01 7.252098409635E+01 1.971982287918E+01 2.884799472484E+01 -2.642420581541E+01 -6.233579984136E+01 -7.019075925339E+02 -1.140094149236E+03 -3.720158671409E+02 2.020651307777E+00 -1.820003439772E+00 1.507933333876E+02 -3.139591314887E+00 -4.295791169670E+01 -1.773924489758E+02 2.791262254546E+02 -1.143530310079E+03 -1.015105129917E+02 1.565488482509E+02 2.723814660510E+03
 6.492657605375E+01 -1.448515979115E+02 1.941629096982E+01 1.523148561328E+02 -4.110202474983E+01 1.203636574929E+00 1.039242677559E+02 1.217249440927E+02 1.752444177916E+01 -5.717550120664E+01 1.288865327679E+02 2.356592210047E+01 -1.395654530442E+02 6.960617036025E+01 -4.212026213348E+00 -9.644994216095E+01 -1.313960850107E+02 2.218656158312E+00 -5.803494222713E+00 5.263246342287E+01 1.466199010592E+01 2.250485284040E+02 -1.518996180664E+02 -2.337328385709E+02 -1.431935085803E+02 4.447834488754E+02 -6.539325961441E+02 2.626242046522E+01 -4.898185690519E+01 1.200092843658E+01 3.218829779541E+01 1.148861232851E+01 -1.017551884233E+01 -1.189153412023E+01 4.670710627819E+01 7.504055822877E+00 4.278500686310E+00 -4.707775465173E+01 4.190831624155E+00 -4.768775363373E+02 -5.373572361356E+02 -2.037709637377E+02 1.178168896098E+00 -4.869204616337E-01 5.556278164384E+01 5.228726132981E+01 1.026275906104E+02 -1.129622662261E+02 2.515969188839E+00 -2.727438203722E+01 -6.603094971157E+01 1.868473097644E+02 1.964283779975E+02 1.223849481201E+03