#BIOSYM hessian 1
@Type: Hessian Update
@Units
 distance: 	A
 energy: 	Kcal/Mol
#header
@natom 19

#label
L1      L2      L3      L4      L5      L6      L7      L8      L9      L10     L11     L12     L13     L14     L15     L16     L17     L18     L19

#element
Li Li Li Li Li Li Li Li Li Li Li Li Li Li Li Li Li Li Li

#matrix
57
 5.486528975216E+00
 -5.452565696188E-01 1.147210798302E+01
 8.147016659558E+00 -4.554246020395E+00 1.514203934875E+01
 -8.194087418204E-01 -1.921367150736E+00 -2.277622049917E-01 9.458505729349E+00
 -4.978736423275E-01 -2.583134084725E-01 -4.253668877452E-01 5.050099101897E+00 4.379168642021E+00
 -2.720949162068E-01 6.057578585845E-01 -8.694894817611E-01 -2.973981185368E+00 -1.410438977235E+00 1.651964012372E+00
 -1.059351425924E+00 4.478333377149E-01 -2.364778429080E+00 -1.032669432584E+00 2.032564580706E-01 1.101996487257E+00 1.977571145125E+01
 -5.319269382006E-01 7.479944192773E-01 2.291861070877E-01 -1.286029002573E-01 2.568530271315E-01 1.487804424889E+00 6.500137134185E+00 1.123097608578E+01
 -7.922914323467E-01 -1.344547723938E+00 -1.408235439673E+00 9.298926776124E-01 1.154724393369E+00 3.054425673697E-01 7.572117727311E+00 2.585163611922E+00 5.821847629707E+00
 1.863922596471E+00 -1.133215993964E+00 3.728672411331E+00 1.134806266001E+00 -1.247622153822E+00 -7.787958104755E-01 -1.423933960251E-01 -1.287443038336E+00 -1.998621770549E+00 1.225321297839E+01
 1.213822713705E+00 2.465326106353E+00 1.555547352317E+00 1.672441937890E-01 -1.548374284455E+00 4.074059643777E-01 -1.100528392952E+00 1.838393684560E+00 -7.667440607938E-01 -3.174703993873E+00 5.317751125364E+01
 7.395953052034E-01 -3.870662099009E+00 1.365415435683E+00 -1.428854847643E+00 4.620518957370E-01 3.338837822689E-01 -1.736032639459E+00 -8.063409579923E-01 5.906108119665E-01 -6.499324814237E+00 -4.121413644484E+00 2.171714399980E+01
 -5.875658759014E-01 1.505160548200E+00 -9.470749407844E-01 -1.501214624505E+00 -7.977950435861E-01 9.350613768593E-01 1.490786113041E+00 -2.472862946972E-01 1.160295461263E+00 -9.038147785364E-01 -3.638443106916E-01 -2.043696690208E-02 5.180298129070E+00
 -7.455479627381E-01 1.339517058044E+00 1.972392482255E-01 1.615409270999E-02 -4.780508442978E-01 -5.971341944414E-01 -6.677000665303E-01 -6.376615685494E-01 1.011298282984E+00 -3.005834464382E+00 -3.006553544036E+00 -3.804699649470E+00 2.250066906769E+00 1.950268510459E+01
 -1.155378204258E+00 1.328808530023E+00 -1.888962754587E+00 8.636140039775E-01 8.498919768359E-01 -1.349422772373E+00 9.039458671850E-01 2.746869402003E-01 -6.141388102104E-01 -8.893596493810E-02 -3.326291256107E+00 1.293012681931E-01 -1.226847393088E+00 1.742237665629E+00 1.770076487146E+01
 -8.156262714415E-01 -5.999756105077E-01 -1.779704442463E+00 -4.872377601165E-01 -1.023949185419E-01 1.401568245243E+00 -1.068969298687E-01 1.706293298455E-02 2.743394574290E+00 -8.193474403754E-02 1.300778044597E-01 -1.962469269590E+00 6.394141092224E-01 1.359258462689E+00 3.265912003790E-02 1.928050353353E+01
 -3.660794744244E-01 -1.305981740018E+00 5.758066921575E-01 -3.192387365220E-01 2.325655380780E-02 -6.535002103124E-01 -1.303582150669E-01 -4.623026378254E-01 -1.322524591809E+00 4.892399863051E-01 -1.129039766082E+00 2.722016873661E-01 5.861318659374E-01 -2.724736557578E-01 1.248077275553E+00 -8.922307279030E+00 1.388101120479E+01
 -2.740609820484E-01 2.806115023068E-01 -4.664918544296E-01 5.891919005163E-01 2.361309019683E-01 -4.134520049410E-01 -6.517420602858E-03 -3.758860867537E-02 -7.047361857105E-01 5.430607015951E-01 -4.696233497450E-01 1.049720447735E-01 5.465621232177E-01 -2.843105340673E-01 5.230199360116E-01 -7.055699928620E+00 4.840363110467E+00 3.650892640681E+00
 1.078571893668E+00 -9.185038906862E-01 1.206347998204E+00 -1.122805350905E+00 -2.043305524526E+00 -1.671074859526E-02 -8.669859194822E-01 -5.087220044301E-02 -6.284700979255E-01 3.052694528169E+00 -6.918977116937E+00 -1.070348753934E+00 1.353863521174E-03 3.192141647175E+00 2.249917429839E+00 -1.406550090531E+00 3.704913026567E-01 1.469519973790E-01 1.847237079428E+01
 1.215117145732E-01 2.195873087113E+00 -1.784117279128E+00 -3.274080014150E-01 -1.438255273552E-01 7.233835184915E-02 5.307067180852E-01 -5.265407369820E-01 8.373699622533E-01 -1.900936828881E+00 3.659637469459E-01 2.940103381313E+00 2.209980494195E+00 -2.133235340895E+00 -2.978849031981E+00 -1.754793668734E+00 -4.577491418859E+00 -3.754196198492E-01 6.354483024925E+00 1.616021055432E+01
 4.566522822177E-01 -9.991924259689E-01 1.211658277956E+00 -1.031073943209E+00 -1.406351902962E+00 4.715063744250E-01 1.636393558931E+00 1.513798142654E+00 6.607964222541E-01 -1.424741059048E+00 7.666064951940E-01 -9.270300265592E-01 5.908622958680E-01 -5.072202607860E-02 -1.310315338042E+00 -1.101571276920E+00 -3.587801208249E-01 -5.104991663253E-01 6.165016752523E-01 -6.710663707209E-01 1.697502745832E+01
 1.699861755345E-01 -1.209917883229E+00 -1.203587666304E-01 -1.382444057995E+00 6.339171299555E-01 1.214690362616E+00 3.936883368105E-01 -5.489663006315E-01 1.310591403965E+00 -5.676261206534E-01 3.992492610432E+00 3.235908306018E+00 -1.315308707348E+00 -1.423640227032E+00 -6.625865756239E-01 5.403873368661E-01 -3.013762090215E+00 1.685287046763E-01 -3.572362542895E+00 -5.623811126562E-01 -4.302216555053E+00 1.404411565406E+01
 -2.024555046570E+00 2.057573011659E-01 -2.238461533057E+00 3.604593706279E-01 7.493542400545E-01 -3.817860688110E-01 -2.228243918796E-01 -2.572667105237E-01 8.047118323066E-01 4.271704931626E+00 -2.059029061353E+00 -9.292676333482E-01 -8.319041265595E-01 -4.105049606834E+00 -6.948732901068E-01 -3.473418728715E-01 1.142681790974E+00 6.531262302531E-01 -5.360342151315E+00 -1.067284399632E+00 -1.006321075277E+00 4.307950034673E+00 2.443797060393E+01
 -8.546367471357E-01 -1.000466144815E+00 1.728199729698E-01 1.445447124101E+00 7.520797881713E-01 -1.049244086223E+00 8.450056803945E-02 -5.590097309625E-01 -6.009461209209E-01 2.600057656976E+00 -8.334353095433E-01 -2.935042397575E+00 -2.483990830268E-01 -1.532522825320E+00 1.811337041670E+00 1.946894483398E+00 -2.286343264699E+00 -1.456334790927E+00 -4.743839282786E+00 -1.264366664858E+00 -5.982487601408E+00 -1.150688432785E+00 5.643873196337E+00 1.944406458470E+01
 1.130887608764E+00 1.825729365750E+00 5.662074242145E-01 -4.039536148669E+00 -9.006082830820E-01 1.345960662443E+00 -1.564339162586E+01 -5.674321768983E+00 -8.809972342935E+00 -1.055152275772E+00 -5.741982595334E+00 7.791105835208E-01 8.075450942786E-01 1.262392969249E+00 1.840619871504E+00 2.271965115149E-01 1.410714080548E+00 9.526585098431E-01 5.813318441355E-01 3.617343462003E-01 -1.912803072838E+00 5.481118292416E-01 -7.794820347981E-01 -1.561906539875E+00 2.826832557747E+01
 1.321417853180E+00 -2.693160680983E-01 3.768628125277E-01 -2.000906673426E+00 -7.744023141375E-02 7.461850753106E-01 -4.404934415512E+00 -2.150994187046E+00 -6.768485875318E-01 6.631888808892E-01 -7.297244511526E+00 2.342709349372E+00 1.298503976608E+00 -6.351760708688E-01 -6.106296522841E-01 -6.963780523857E-01 -3.940607728179E-01 5.208467453648E-01 2.126052169533E+00 2.141228021837E+00 -7.604324021754E-02 -6.391376737791E-02 7.249915307544E-01 1.180486372975E+00 8.045291362097E+00 1.814951567911E+01
 2.477818228943E+00 -2.092888362570E+00 4.325200764856E+00 3.197073451830E+00 -1.354203663740E+00 -2.333767976180E+00 -1.057942156162E+01 -4.940603041451E+00 -3.720970534603E+00 4.886831754520E+00 8.237817652123E+00 -1.729202525976E+00 -1.639031066781E+00 -1.716826860594E+00 -4.734053189512E-01 -1.470410771849E+00 1.268928299282E+00 1.871549113199E-01 2.925157845409E+00 -2.662436604125E+00 -1.164305910676E+00 -2.148604717755E+00 2.472284954392E-01 3.064175595589E+00 -1.012230759302E+00 5.412022468360E+00 2.171455484803E+01
 -2.362338840660E+00 -3.930026212055E-01 -1.716054994620E+00 4.594256088108E-01 1.314033899272E+00 3.208553460825E-01 1.418487797426E+00 1.008779619567E+00 1.449755402171E+00 -2.846701078958E+00 1.722878739566E+00 -1.068896068277E+00 1.973360160487E+00 9.160588429084E-01 3.193866099753E+00 1.621346535907E+00 4.283113351710E-01 -1.839720931740E-01 -3.956133991921E+00 -2.027179393751E+00 -2.343677271320E+00 5.614887334895E-01 1.881802380155E+00 2.815225757137E+00 -7.064889007546E-01 -4.326033611182E+00 -4.497542543153E+00 9.200868017871E+00
 1.713064558181E+00 -6.029937870002E-01 1.219819256368E+00 8.413043380117E-01 -7.469704627033E-01 -4.119370521124E-01 -1.163265581843E+00 -2.447892073328E+00 -7.602432642569E-01 4.156687031193E+00 -7.395205733474E+00 -1.036501223032E-01 -2.054054781309E+00 -1.504948627864E+00 -1.121000217777E+00 -1.610995949064E+00 1.157162380901E+00 7.064745756985E-01 3.281131741315E+00 -4.855437938409E-01 1.381375356053E+00 6.930288320582E-02 -5.243193061129E-01 -3.284047736276E+00 -1.185028302694E+00 2.568942444064E+00 3.862064999694E+00 -2.959705297443E+00 1.426002343509E+01
 -9.650788280584E-01 2.639945371306E-01 -1.146842346273E+00 2.248875152391E-01 -6.207112694594E-01 -4.539179480754E-01 -5.924980351692E-01 -9.187838377910E-01 -4.126719556196E-01 6.302444643847E-02 -5.852934409353E-01 2.309042124821E+00 1.157482440201E+00 5.359733439042E-01 5.426953598331E-01 -6.288614820959E-01 -5.442939008250E-01 7.957623390305E-01 -6.396244434253E-01 -5.873044095496E-01 4.032146555660E-01 4.096884826995E-01 5.618905769001E-01 -2.524030608244E-01 5.978374586937E-01 -9.352638189299E-01 8.744272899373E-01 -1.268347734266E+00 -4.075841796920E+00 6.993890602854E+00
 1.555344886072E+00 -2.149278311111E+00 2.030936297969E+00 -5.159732619213E+00 -3.565895381054E+00 3.645891952447E-01 -2.968006517578E+00 -1.071905798522E+00 -1.408547281619E+00 -7.263295046279E-01 1.243695118900E+00 3.480067550864E+00 -1.112180360594E+00 -8.684674538812E-01 3.058507629886E+00 -3.739833080679E+00 2.037748465059E+00 9.481577133198E-01 5.013978076041E-01 9.311604931061E-01 1.901614643610E+00 -3.715430683499E-02 -1.227375584338E-01 1.351931010401E-01 1.648547430620E+00 -1.186102871978E-01 2.353268781697E+00 -3.160189699829E+00 1.351414410778E+00 -1.839854357572E+00 2.025826901072E+01
 -1.253168720117E+00 -4.880813989057E-01 -2.008410877878E+00 -2.805775541102E+00 -3.305498764017E+00 1.857465834826E-02 -1.920563022044E-01 5.412569452508E-01 3.786776296229E-01 -2.027954331583E+00 -1.452850810196E+00 7.819750927346E-01 -2.934516557202E+00 -8.910019115172E-01 8.887886397562E-01 1.920722431819E-01 -3.076182321051E-01 -2.857677852496E-01 -8.362320389063E-01 -2.136809814666E+00 -1.431368234328E+00 6.153986654162E-01 3.011926588420E+00 7.757552978887E-01 -3.426804121046E+00 -7.188947184200E+00 -8.677232489532E-02 1.548154284580E+00 -3.046630409851E+00 3.867837128482E+00 -1.398528722527E-02 1.865628923383E+01
 -2.396573064223E-01 1.880726344241E+00 -4.163827737787E-01 2.775275744435E+00 1.084128570266E+00 -2.971057110777E-01 5.764348746970E-01 -6.710690221936E-02 1.981433264157E-01 2.401192867418E+00 2.154532813196E-01 -8.841523137901E+00 -6.966927198529E-01 2.114485644853E+00 -1.020027108414E+00 1.900370981937E-01 1.178155579907E-01 4.144605816623E-01 -1.770908341855E+00 -2.817366374879E+00 -4.512430272896E-01 2.096067289058E+00 -2.704483768440E+00 6.646707386798E-01 -3.441026196903E+00 -4.317186733524E+00 -1.573187387041E+00 2.001300362817E+00 2.744852946572E+00 -3.420095811139E+00 -4.345356979122E+00 -4.810754230678E-01 1.646456592319E+01
 -5.824788521271E-01 2.330770141214E+00 -1.098885418884E+00 3.684492608100E-01 1.516238805945E-01 1.310630851846E-01 3.026712012138E+00 1.477934125473E+00 4.975144374997E-01 -7.628090688006E-01 -3.688879045553E-01 1.176923389930E+00 -2.615117414451E+00 1.651752688625E+00 -3.486291754994E-01 3.773103572230E-01 -2.726703456924E+00 -1.201432550399E+00 -3.671744227685E+00 -3.768261722033E+00 2.405303939298E+00 1.306595290581E+00 1.785150256182E+00 1.075918876747E+00 -4.025578660970E+00 -2.607797595813E+00 -3.060842959475E+00 8.580727107435E-01 1.800626570614E+00 -3.624247620231E-02 -7.998229345801E+00 5.286078834051E+00 2.097340414286E+00 1.346721142187E+01
 -1.212575468483E+00 -5.075137815385E+00 -1.434324368772E+00 3.028219166096E+00 9.966251998600E-01 -2.322400257082E-01 -1.328402449791E+00 -2.607251170069E-01 2.844790504665E-01 3.161798874217E+00 -5.305125743983E+00 2.760719696167E+00 -1.691983265737E-02 -1.009633351513E+01 1.759911249630E+00 -5.194087323585E-01 8.283030470186E-02 1.645950269930E+00 -3.992315624060E+00 -7.868244669584E-01 1.368070504710E+00 1.825953784677E+00 2.910419032717E+00 1.626172595670E+00 2.187602846984E-01 -1.450738376422E+00 9.622974704508E-01 1.139554905309E-01 1.728191991005E+00 1.320025672608E+00 6.955454162826E+00 -9.473546217825E-01 -7.264605137395E-01 -5.083889863110E+00 1.788635261962E+01
 8.807005353773E-01 -1.864126705961E+00 4.434373211946E-01 2.215870352763E+00 1.216201365620E+00 -1.114042229363E+00 -1.583357032075E+00 -1.924852838673E+00 2.173702487009E+00 -1.693120892066E+00 -2.588405866149E+00 7.549930956946E-01 3.129189328725E-01 1.778884261150E+00 -2.792275695296E+00 3.729843184606E-01 1.945536358298E-01 4.684375301849E-01 6.411771879148E+00 5.316010936756E+00 -6.194582169187E+00 -1.613921938936E+00 -2.274483008528E+00 -3.038547434650E+00 -6.961639153788E-01 1.404291526948E+00 -3.725573187909E-04 5.116871529028E-01 1.076919211171E+00 -6.639074826364E-01 -1.155055718158E+00 2.179103103649E+00 4.388914403331E-01 -5.668350436285E+00 -3.146229506139E+00 1.666220646966E+01
 -2.203463576877E-01 1.331547653915E+00 -1.687280635210E+00 -1.929006259416E-01 -1.209718825384E+00 3.308127229091E-01 -9.942238276544E-01 -3.531127045394E-01 -6.322632550780E-01 1.865447271092E-01 4.360692920216E+00 -1.288805264621E-02 1.081231194242E+00 -1.253049211887E+00 -3.695780313100E-01 7.465612155949E-01 6.297642492829E-01 -4.158160996681E-01 1.509633008206E+00 8.809556040625E-01 -1.122225457486E-01 -3.790639286402E+00 1.821983403046E+00 -6.065857827234E-01 9.579680648900E-02 1.997103782015E+00 5.385004630071E+00 -1.623147294268E+00 -7.027108409382E-01 -7.948256880690E-01 1.458129590210E+00 -1.662814707501E+00 -3.003070037416E+00 -1.752643923868E+00 1.286258975046E-01 -4.081633858445E-01 8.236516723822E+00
 7.122784956971E-01 -9.249437571992E-01 1.987047864223E+00 1.058695190530E+00 5.599998076322E-01 -6.777836651448E-01 6.901048129134E-01 -3.106957802562E-01 -3.699547100744E-01 1.308289434783E+00 3.535457717117E-01 -1.804351643056E+00 3.927413069759E-01 -1.349602170199E-01 4.634375504649E-01 -6.329470295041E-01 8.034516147180E-01 2.618813862101E-01 -1.457983151515E-01 1.213620253671E+00 -2.842970916931E-01 -6.349708248062E-02 -4.658321872082E+00 -2.985866787816E-02 -5.311401648189E-01 3.466401917562E-01 1.006768275732E+00 -2.414913391588E-02 5.497800658012E-01 -4.449953880717E-02 -1.601955454847E+00 -1.990042584910E+00 1.086057413101E+00 -1.582327834330E+00 -4.638659522961E-01 -5.664340058156E-01 -2.754653655245E+00 5.028584705230E+00
 -6.262365390619E-01 2.699256272377E+00 -3.007422534457E+00 3.852544168400E-01 6.391455909880E-01 2.433054341220E-01 5.363766296189E-03 -2.283295702098E-01 -5.729758528475E-02 2.259400218710E-01 3.374187286382E-01 -2.865617219309E+00 -1.322791830823E+00 -1.478410529153E+00 -2.058287964482E+00 2.435173547055E+00 -1.297273085782E+00 -7.357635450643E-01 2.276173942070E+00 -3.640447210026E-01 -5.158431584639E-01 -1.014592068482E+00 -8.256996030575E-01 4.706542905232E-01 3.569776388460E-01 -4.987338737898E-01 9.606823215620E-01 -1.829436689551E+00 2.864665141145E+00 -8.505376644437E-01 -5.282505400389E-01 -7.332534656387E-01 -2.892335301227E+00 7.450614851866E-01 -4.309380115814E-02 -1.409722827729E-01 3.317060810779E-01 -6.339484838500E-01 9.183301347595E+00
 5.323748584147E-01 1.380931885144E+00 6.888364727381E-01 1.080911624602E+00 8.717482874492E-01 -5.732832167714E-01 -7.980275168290E-01 3.450745029524E-01 -4.092490355037E-01 -2.538832997279E+00 -8.024188748598E+00 4.233970585744E+00 1.186059966722E-01 6.448733882617E-01 -3.078178205959E+00 -1.453822956873E+00 -2.710037351076E-01 -5.903175900051E-02 -2.042495503361E+00 2.910927444690E+00 1.030063016428E+00 -3.145068529741E-01 -4.368010138606E-01 -2.042822291728E+00 -3.125434325717E-01 -3.996744471566E-01 -6.153158039333E-01 -2.861370891273E+00 2.845946272749E-01 1.778909321939E+00 -8.299556883681E-01 4.479243646322E-01 8.105767776156E-01 2.795506149354E-01 -5.430758572378E-02 -1.191291896992E+00 -7.365842516603E-01 1.094230948772E+00 -1.606198080031E+00 9.305616165494E+00
 1.730946732808E+00 -5.190774958636E-01 1.967782232607E+00 4.614945080271E-01 1.077758326585E+00 5.043781152954E-01 -1.000199221242E+00 8.483391446610E-01 -5.618275386828E-01 -6.802558776158E+00 -8.630646910267E+00 4.092303001263E+00 -5.564098553221E-01 9.841545329096E-01 1.376046233058E+00 6.583123607457E-01 -1.101224719716E+00 -1.311041230329E+00 6.553155012056E+00 -3.349331326287E+00 3.181211312839E+00 -2.569876976937E+00 -1.588625897742E+01 -4.455958994609E+00 5.797706348190E-01 -3.289190619095E+00 5.738680195530E-01 5.016476885353E-01 1.671257301716E-03 -6.987070771036E-01 -1.594793317334E+00 8.227283418352E-01 2.627461770196E+00 -3.649222582942E-01 -1.059458072889E+00 1.452482984801E+00 8.073610720948E-02 -1.368024628272E-01 2.686799408209E+00 2.621755560662E+00 2.843225010990E+01
 1.537911747640E+00 7.080596167406E-01 2.240083792680E+00 -1.235478687780E+00 -7.555860748359E-01 1.043712878706E+00 -1.066750422931E-01 1.240230554235E+00 -2.735153678487E-01 1.647141230029E+00 7.147062694442E+00 -5.682658902574E+00 -4.466467899342E-02 9.392927011831E-01 -1.201173074337E+01 -1.438340648557E+00 -2.348804149730E-01 2.741060889496E-01 -4.106987199048E+00 2.008506102538E+00 -4.533860651420E+00 3.692560933244E-01 -1.573839097444E+00 -2.454142508970E+00 1.089502534358E-02 -1.290692916140E+00 -1.144441369336E+00 -1.237750063627E+00 -1.486481497254E-01 -3.646988831525E+00 1.155868412478E+00 -9.016512530902E-01 1.529388138718E-01 -4.261723806134E-02 -1.971566935976E+00 1.361793063042E+00 1.262815480142E+00 6.047718546999E-01 1.693437346462E+00 -7.055049754825E-01 -7.041548595001E+00 2.189932257288E+01
 -4.652166253518E+00 -1.022745324272E+00 -4.295827483485E+00 1.023491161674E+00 9.886640894541E-01 -2.044909238170E-01 -4.510921041999E+00 2.440053607869E+00 -9.140470263786E-01 -2.452221308353E+00 -4.981666561719E-01 1.093547867456E+00 -2.027058049775E+00 -1.509612135963E+00 2.492794383406E-01 -1.934504828799E+00 -9.903938666223E-01 -2.491975856043E-01 -2.100408058668E+00 -7.913604487123E-01 -1.081380012814E+00 8.497445808798E-01 2.808111310843E+00 1.161844863864E+00 -2.529529027898E+00 -1.827232461949E-01 3.230039343832E+00 3.171397614512E+00 -1.015537085686E+00 -2.808023773519E-01 1.562259084924E+00 1.885158107102E+00 -1.481799070080E+00 3.746162689863E-01 1.767604852785E+00 -2.383066332907E+00 -8.092953344123E-01 9.428740904200E-02 3.951949362986E-01 1.157107794777E+00 -6.724480116411E-01 1.129897774961E+00 1.554049700758E+01
 -2.295910870991E+00 -2.873597159614E+00 -1.663154610567E+00 2.907490710968E+00 1.870174467124E+00 -7.902130853732E-01 2.216522544864E+00 -7.925940850583E-01 -2.445424473310E-01 -1.212348859276E+00 -1.616828548180E+00 -3.467676502999E+00 -1.609944099838E+00 1.184977667099E+00 7.259133505812E-01 2.615607335705E+00 -2.897690982753E+00 -1.786521232529E+00 -2.224261947830E+00 -4.225726900841E-01 6.998752221622E-01 8.706954218727E-01 1.851746197015E+00 -1.927523600458E+00 3.811780101429E-01 -5.515492695284E+00 -2.462370129582E+00 3.394489345790E+00 8.805118817659E-01 -3.937100894518E-01 -3.916468625932E+00 -4.278762628446E-01 -1.560397025471E+00 4.117138093326E-01 -5.034772467517E-02 -2.005698553939E+00 -9.323013314138E-01 2.173405634322E+00 1.933292272736E+00 2.235322785347E+00 1.426437990210E+00 4.530278452282E-01 4.319383012128E+00 1.802458528020E+01
 -5.712022901732E+00 -3.338996594598E+00 -6.896941079441E+00 7.626925084211E-01 2.337047881304E-01 1.045696939734E-01 2.809049706337E+00 -4.960637273672E-01 -7.804060237571E-01 -5.263842301113E-01 -6.013607027078E-01 4.179983883628E-01 -1.239830596994E+00 -1.201007864371E+00 1.020575211259E+00 9.215254236532E-01 1.171862703939E+00 -4.677544470527E-01 -8.012580805367E-01 -1.057487062536E+00 -5.325200232372E-01 -4.204249481476E-01 9.360947843379E-01 1.317093352604E+00 -5.318469948883E-01 -5.464679931090E+00 -4.823706244655E+00 2.493504222639E+00 -1.477258643939E+00 5.659227278123E-01 -1.935216212569E+00 1.057558538600E+00 -9.393828059261E-01 1.347681942287E+00 1.484903122831E+00 -2.759335384789E+00 -4.667196299037E-01 3.753405990672E-01 6.910085052771E-01 -8.458147389160E-01 -1.025582328578E+00 -1.292463351793E+00 4.098593653314E+00 8.109938274466E+00 1.228538260811E+01
 -5.577072027635E-01 -7.071761650387E-01 -6.039516028151E-01 -1.339185077182E-01 -7.529996940588E-02 -1.329851287275E-02 1.190353229186E-01 3.016535222877E-01 1.550274082582E-01 -1.000937628377E+00 4.240557235712E-01 4.402715240924E-01 1.020217658160E-01 4.878956714362E-02 6.517635416207E-01 -9.009175003619E-01 1.133907283630E+00 4.712202229648E-01 -2.380070269675E-01 9.038447371601E-02 8.919223835493E-02 -5.018648172142E-02 7.915697825236E-01 -2.372664595201E-01 4.313725957989E-01 4.059027918257E-01 -4.813933963985E-02 6.188015575461E-01 -9.652143303225E-01 3.431502925607E-01 -1.328443113105E-01 1.145380778131E+00 -8.192631212461E-01 -3.684101632916E-01 -2.640193514259E-01 4.843246573498E-01 2.258892770677E-01 8.821385525276E-02 -8.889507737489E-01 -3.077277642590E-02 -5.143851034981E-01 -6.574296015106E-01 4.428622547127E-01 6.178841572913E-01 6.225381361194E-01 5.921160099016E-01
 8.775269148653E-01 5.922029511665E-01 1.469451270420E+00 -1.143519216928E+00 -5.869420846275E-01 2.076577047292E-01 -1.170593927872E+00 -4.202235938665E-01 -1.393737886835E+00 2.168768025194E-01 2.444524173643E+00 1.697453043776E-01 5.596588312178E-01 -6.021847616978E-01 -1.525630372817E-01 -8.962442954844E-01 1.121119934240E+00 1.899243721029E-01 5.947475724264E-01 4.432257608175E-01 9.461866679778E-02 -6.540554600013E-01 -5.809433561796E-01 -7.076251837346E-01 2.298373874001E+00 -1.282178437759E-01 4.331379540168E-01 1.092463503963E-01 -5.871984354548E-01 -1.414705448661E-01 4.285806503664E-01 -9.824092224359E-01 -7.406312709625E-01 -1.105739611300E+00 -1.120131326215E+00 -1.879327947591E-01 5.968788162183E-01 3.552607822839E-01 -4.234628626105E-01 -2.502905759915E-01 3.441433055096E-01 3.461752585344E-01 -7.871981754912E-01 -1.306804664332E-01 -2.005096051817E-01 4.879519316222E-02 9.886117712015E-01
 -1.101074148983E+00 9.489239897550E-01 -1.718340354559E+00 -5.961249646386E-01 3.618450459211E-01 4.735549967567E-01 1.315753202834E+00 3.802026796035E-01 1.482506102135E-01 -1.132263241002E+00 -2.212650469552E+00 1.986671504616E+00 3.256131644419E-01 1.008350180826E+00 4.124319436752E-01 -4.790123607486E-01 2.649491163341E-02 2.366944330886E-01 -1.204185118263E+00 -1.556521376616E-01 2.957605466404E-01 9.077529840660E-01 -4.845015775412E-01 -2.821970152303E-02 4.450929169508E-01 -2.415358783842E+00 -4.723566447291E+00 7.017804494304E-01 -4.593001316244E-01 -4.038846297914E-02 9.689415100209E-01 -7.721915961677E-01 2.615818372748E-01 1.783890985248E+00 1.199505255649E+00 -2.679166439692E+00 -1.108707559318E+00 -8.286020191238E-01 5.338737527322E-01 4.086563872625E-01 4.136106122909E-01 3.773359332364E-01 1.760601869519E-01 -4.483531921544E-01 1.829603745928E+00 -4.394801895251E-01 -2.291906223440E-01 2.603107122230E+00
 1.209917150165E-01 5.561603036289E-02 -1.054889066940E-01 2.919482118153E+00 1.095943330185E-01 -1.909290420799E+00 3.993168581265E+00 -1.352647408659E+00 7.209894046528E-01 -6.760094707655E-01 1.532286350818E+01 1.494945721988E+00 3.602186803043E-01 -1.802769980684E+00 -3.976149253178E+00 -1.682576543396E+01 1.097124767781E+01 7.448050592876E+00 -5.206529082768E+00 -4.846526326073E+00 3.951045786130E+00 1.310834961869E-01 -7.504229815123E-01 -2.675317035653E+00 -1.082956553094E+01 -2.537814935928E+00 5.761740636276E+00 -2.088414620880E+00 1.656826655773E+00 2.398932128698E+00 2.151982976172E+00 4.784439756523E-01 3.682646966704E+00 8.223388315726E-01 1.043350061347E+00 3.326386784717E-01 1.968347013296E-01 1.902640693436E-01 -2.315144653740E+00 -8.665556997009E-01 -1.653578852247E+00 4.798871862127E-01 -2.246721869993E+00 -7.314117342454E+00 -1.721372518969E+00 7.526707439556E-01 1.958284999637E-01 -4.639878417274E-01 3.313525345528E+01
 3.380111497192E+00 -6.205357767590E+00 8.376115957133E+00 -2.311140720526E+00 -1.505764541148E+00 6.929953113989E-01 1.765388166552E+00 -1.148001715773E+00 4.243249180498E-01 8.648725479437E+00 -2.131942797029E+01 3.052604287090E+00 9.925400747416E-01 6.025423551285E-01 -6.305155762125E-02 9.843275108403E+00 -5.996078588926E+00 -4.330692051054E+00 -1.158135946797E+00 -6.399549920250E+00 -2.241047985162E+00 -1.942542364652E+00 -3.619655334730E+00 6.689512666857E+00 -3.753892109651E-02 3.553208501324E+00 -4.224201943247E+00 -1.097333075656E+00 -2.106748761790E+00 1.855054316891E+00 -9.217612938033E-01 -1.153691986381E+00 2.097090589406E+00 2.081645718848E+00 3.792699147917E+00 -1.639221085967E+00 -2.704362453569E+00 -8.695303510885E-02 -6.320116829569E+00 -3.380900449547E-01 6.157819513031E-01 1.471067544231E-01 -4.553074290158E+00 -7.155678207644E+00 -1.186935744249E+00 -1.982013370028E+00 -7.771803814896E-01 1.580098609059E+00 -1.203846366991E+01 4.301422957338E+01
 -4.166549528116E+00 7.058563825136E+00 -1.012151502056E+01 -2.578694932361E+00 -6.615622700137E-02 2.238047441873E+00 8.206836422043E-01 -1.436576269899E-01 4.867725685608E-01 -2.342590162727E+00 -5.174893970120E+00 -3.467413920054E+00 1.902162542284E+00 3.044388747257E+00 2.443328185854E+00 5.939333103154E+00 -2.393231241140E+00 -6.033015452687E-01 -2.391115557094E+00 1.091220478043E-02 -5.481459185766E-01 3.047141052882E+00 2.230386034028E+00 -3.836121765865E+00 7.715070156988E+00 2.007728852270E+00 -7.243919120753E+00 7.042218415193E-01 -8.093144291324E-02 2.792758702166E-01 -2.702823136481E+00 -1.054481735320E+00 8.001178061032E-01 1.768366525462E+00 -7.552401450809E-02 -3.748434502058E+00 9.128215499421E-01 -1.732630804735E+00 3.255287337522E+00 4.268927225776E-01 -2.189771474854E+00 7.089969208751E-02 -9.985851121707E-01 2.252315936952E+00 1.700960231554E+00 -8.974592442212E-02 -8.328234809567E-01 2.241824353881E+00 -8.048630540031E+00 -4.128942754113E+00 1.603993741346E+01
 -1.752333286219E-01 5.497308068901E-01 -4.735586424533E-01 4.191983423791E-02 -1.758213137393E-01 4.923482491894E-02 -1.932112460262E-01 1.058472251996E+00 -3.063266018289E-01 -2.472902226745E+00 4.083407430111E-01 -2.210907281540E+00 3.979618502618E-01 1.672107709052E+00 -1.834853710009E-01 1.878866440923E+00 8.415315718097E-01 -7.634917676632E-01 -2.182277176923E-02 -1.383472176002E-01 -1.417918853853E-01 -6.768464223837E+00 -6.879920519437E+00 3.334407919277E+00 1.473613119426E+00 4.917464759397E-01 -1.172999926983E+00 1.513109766981E+00 2.525396236594E-01 -1.892445018256E+00 -1.533251751701E+00 3.093562688854E-01 1.127363666797E+00 6.452209474304E-01 -2.926459103910E+00 2.069774437735E+00 -2.594497354991E-01 1.050582594356E+00 1.381537834776E+00 -9.681663758968E-01 2.986284690515E+00 1.045052982708E+00 -1.190861689665E+00 -1.063095783080E+00 3.970904212001E-01 6.031075958935E-02 1.076068974326E-01 -2.657725636042E-01 -1.664921713160E+00 3.633601825060E-01 -9.230118866884E-01 8.098668995112E+00
 -1.093644545088E+00 -1.118470872158E+00 -2.079189156524E+00 -1.463886787187E+00 -1.076508519424E+00 8.694994339213E-01 5.636124380320E-01 1.038833109805E+00 9.000121066161E-01 -1.592338911665E+00 -2.550719369486E+00 2.769266454542E+00 -5.608414707936E-02 1.329723952416E-01 -2.716327603951E-01 -2.294791052777E-01 -4.905485233918E-01 4.148607650193E-01 -1.295672190839E-02 -3.141822965976E-01 -3.570769180605E-01 -3.879081006461E-01 -3.427506497675E-01 4.513492685770E-01 5.617915295872E-01 1.984244019007E+00 -2.887300565699E+00 4.276110786998E-01 -1.003157318037E-01 3.156599558465E-01 1.769410264605E-01 3.004923366899E+00 1.478038947675E-01 1.837626116625E+00 3.587004825053E-01 2.490116686196E+00 -2.433817179058E-01 -2.297138998899E+00 -1.124215726390E+00 -1.317580735126E+00 -5.947890771286E-01 -8.130606349101E-01 -2.874493695784E-01 -3.655392610138E+00 2.974252737605E-01 3.244101210965E-01 -7.251003589629E-01 4.523592826482E-01 9.424876551261E-01 3.640843880800E+00 4.762834974926E-01 1.699607174936E+00 4.651535224905E+00
 1.512105972051E+00 5.821863297062E+00 1.552756671912E+00 -2.716626243455E+00 1.085194705746E-01 5.028112742695E-01 1.935573764925E+00 2.319266005584E+00 -1.399831045214E+00 8.320652062965E-01 1.684442497147E+00 -2.251772201730E+00 -1.042653050285E+00 -3.002173624092E+00 -9.929333963118E-02 -6.589758496221E-01 -8.318688678648E-01 -9.416256462335E-01 -3.957963372424E-01 7.930153832246E-01 7.133672713019E-01 9.645528103542E-02 3.549634163468E+00 -4.392676041028E+00 7.049162877686E-01 -1.342361050994E+00 -4.155842296782E+00 3.522246072959E-01 -2.091562503047E+00 -4.977098253743E-01 -2.792625419417E+00 6.680139010941E-01 -2.915097769808E-01 1.405549277544E+00 -6.289085813334E+00 2.474255560072E-01 -5.056332687460E-01 5.361354235649E-02 -6.037856619760E-01 7.250658358730E-01 -1.323883672737E+00 1.828087256871E+00 6.567283506674E-01 1.711074412788E+00 -1.196882220289E+00 -8.058775635688E-02 1.595494523021E+00 -7.743257888807E-01 -2.639453135896E+00 -6.246713758149E-01 7.730295226484E-01 -2.106168237585E+00 -1.857347454189E+00 1.292423651924E+01