 Job started on host DESKTOP-5CQNRD0
 at Mon Jul 29 12:41:02 2019

 +-------------------------------------------------+
 |                                                 |
 |      CCC   AA    SSS  TTTTT  EEEEE  PPPP        |
 |     C     A  A  S       T    E      P   P       |
 |     C     AAAA   SS     T    EEE    PPPP        |
 |     C     A  A     S    T    E      P           |
 |      CCC  A  A  SSS     T    EEEEE  P           |
 |                                                 |
 +-------------------------------------------------+
 |                                                 |
 | Materials Studio CASTEP version 2017            |
 | Ab Initio Total Energy Program                  |
 |                                                 |
 | Authors:                                        |
 | M. Segall, M. Probert, C. Pickard, P. Hasnip,   |
 | S. Clark, K. Refson, J. R. Yates, M. Payne      |
 |                                                 |
 | Contributors:                                   |
 | P. Lindan, P. Haynes, J. White, V. Milman,      |
 | N. Govind, M. Gibson, P. Tulip, V. Cocula,      |
 | B. Montanari, D. Quigley, M. Glover,            |
 | L. Bernasconi, A. Perlov, M. Plummer,           |
 | E. McNellis, J. Meyer, J. Gale, D. Jochym       |
 | J. Aarons, B. Walker, R. Gillen, D. Jones       |
 | T. Green, I. J. Bush, C. J. Armstrong,          |
 | E. J. Higgins, E. L. Brown, M. S. McFly         |
 |                                                 |
 | Copyright (c) 2000 - 2016                       |
 |                                                 |
 | Please cite                                     |
 |                                                 |
 |     "First principles methods using CASTEP"     |
 |                                                 |
 |         Zeitschrift fuer Kristallographie       |
 |           220(5-6) pp. 567-570 (2005)           |
 |                                                 |
 | S. J. Clark, M. D. Segall, C. J. Pickard,       |
 | P. J. Hasnip, M. J. Probert, K. Refson,         |
 | M. C. Payne                                     |
 |                                                 |
 |       in all publications arising from          |
 |              your use of CASTEP                 |
 |                                                 |
 +-------------------------------------------------+
 
 
 This version was compiled for x86_64-windows-msvc2008 on May 05 2016
 Intel(R) Math Kernel Library Version 11.1.2 
 Fundamental constants values: CODATA 2010
 
License checkout of MS_castep successful
 
 
 Pseudo atomic calculation performed for Na 2s2 2p6 3s1
 
 Converged in 23 iterations to a total energy of -1304.7512 eV
 
 Calculation not parallelised.

 ************************************ Title ************************************
 CASTEP calculation from Materials Studio

 ***************************** General Parameters ******************************
  
 output verbosity                               : normal  (1)
 write checkpoint data to                       : Na.check
 type of calculation                            : single point energy
 stress calculation                             : off
 density difference calculation                 : off
 electron localisation func (ELF) calculation   : off
 Hirshfeld analysis                             : off
 unlimited duration calculation
 timing information                             : on
 memory usage estimate                          : on
 write final potential to formatted file        : off
 write final density to formatted file          : off
 write BibTeX reference list                    : on
 write OTFG pseudopotential files               : on
 checkpoint writing                             : both castep_bin and check files
  
 output         length unit                     : A
 output           mass unit                     : amu
 output           time unit                     : ps
 output         charge unit                     : e
 output           spin unit                     : hbar/2
 output         energy unit                     : eV
 output          force unit                     : eV/A
 output       velocity unit                     : A/ps
 output       pressure unit                     : GPa
 output     inv_length unit                     : 1/A
 output      frequency unit                     : cm-1
 output force constant unit                     : eV/A**2
 output         volume unit                     : A**3
 output   IR intensity unit                     : (D/A)**2/amu
 output         dipole unit                     : D
 output         efield unit                     : eV/A/e
 output        entropy unit                     : J/mol/K
  
 wavefunctions paging                           : none
 random number generator seed                   : randomised (124126021)
 data distribution                              : optimal for this architecture
 optimization strategy                          : balance speed and memory

 *********************** Exchange-Correlation Parameters ***********************
  
 using functional                               : Perdew Burke Ernzerhof
 relativistic treatment                         : Koelling-Harmon
 DFT+D: Semi-empirical dispersion correction    : off

 ************************* Pseudopotential Parameters **************************
  
 pseudopotential representation                 : reciprocal space
 <beta|phi> representation                      : reciprocal space
 spin-orbit coupling                            : off

 **************************** Basis Set Parameters *****************************
  
 plane wave basis set cut-off                   :   370.0000   eV
 size of standard grid                          :     1.7500
 size of   fine   grid                          :     2.1000
 size of   fine   gmax                          :    20.6947   1/A
 largest prime factor in FFT                    :          5
 finite basis set correction                    : none

 **************************** Electronic Parameters ****************************
  
 number of  electrons                           :  9.000    
 net charge of system                           :  0.000    
 net spin   of system                           :  2.000    
 number of  up  spins                           :  5.500    
 number of down spins                           :  3.500    
 treating system as spin-polarized
 number of bands                                :         10

 ********************* Electronic Minimization Parameters **********************
  
 Method: Treating system as metallic with density mixing treatment of electrons,
         and number of  SD  steps               :          1
         and number of  CG  steps               :          4
  
 total energy / atom convergence tol.           : 0.1000E-05   eV
 eigen-energy convergence tolerance             : 0.1000E-06   eV
 max force / atom convergence tol.              : ignored
 convergence tolerance window                   :          3   cycles
 max. number of SCF cycles                      :        100
 number of fixed-spin iterations                :          6
 smearing scheme                                : Gaussian
 smearing width                                 : 0.1000       eV
 Fermi energy convergence tolerance             : 0.2721E-13   eV
 periodic dipole correction                     : NONE

 ************************** Density Mixing Parameters **************************
  
 density-mixing scheme                          : Pulay
 max. length of mixing history                  :         20
 charge density mixing amplitude                : 0.5000    
   spin density mixing amplitude                :  2.000    
 cut-off energy for mixing                      :  370.0       eV
 charge density mixing g-vector                 :  1.500       1/A
   spin density mixing g-vector                 :  1.500       1/A

 *******************************************************************************
  
 
                           -------------------------------
                                      Unit Cell
                           -------------------------------
        Real Lattice(A)                      Reciprocal Lattice(1/A)
  10.0000000   0.0000000   0.0000000        0.6283185   0.0000000   0.0000000
   0.0000000  10.0000000   0.0000000        0.0000000   0.6283185   0.0000000
   0.0000000   0.0000000  10.0000000        0.0000000   0.0000000   0.6283185
 
                       Lattice parameters(A)       Cell Angles
                    a =   10.000000          alpha =   90.000000
                    b =   10.000000          beta  =   90.000000
                    c =   10.000000          gamma =   90.000000
 
                       Current cell volume = 1000.000000       A**3
 
                           -------------------------------
                                     Cell Contents
                           -------------------------------
                         Total number of ions in cell =    1
                      Total number of species in cell =    1
                        Max number of any one species =    1
 
            xxxxxxxxxxxxxxxxxxxxxxxxxxxxxxxxxxxxxxxxxxxxxxxxxxxxxxxxxxxx
            x  Element    Atom        Fractional coordinates of atoms  x
            x            Number           u          v          w      x
            x----------------------------------------------------------x
            x  Na           1         0.441579  -0.517903  -0.617575   x 
            xxxxxxxxxxxxxxxxxxxxxxxxxxxxxxxxxxxxxxxxxxxxxxxxxxxxxxxxxxxx
 
 
                         No user defined ionic velocities
 
                           -------------------------------
                                   Details of Species
                           -------------------------------
 
                               Mass of species in AMU
                                    Na   22.9899998
 
                          Electric Quadrupole Moment (Barn)
                                    Na    0.1040000 Isotope 23
 
                          Files used for pseudopotentials:
                                    Na Na_00.usp
 
                           -------------------------------
                              k-Points For BZ Sampling
                           -------------------------------
                       MP grid size for SCF calculation is  1  1  1
                            with an offset of   0.000  0.000  0.000
                       Number of kpoints used =             1
 
                           -------------------------------
                               Symmetry and Constraints
                           -------------------------------
 
                      Maximum deviation from symmetry =  0.00000         ANG
 
         There are no symmetry operations specified or generated for this cell
         There are no ionic constraints specified or generated for this cell
                      Point group of crystal =     1: C1, 1, 1
                      Space group of crystal =   221: Pm-3m, -P 4 2 3
 
 
                         Centre of mass is NOT constrained
 
                         Number of cell constraints= 0
                         Cell constraints are:  1 2 3 4 5 6
 
                         External pressure/stress (GPa)
                          0.00000   0.00000   0.00000
                                    0.00000   0.00000
                                              0.00000
  
+---------------- MEMORY AND SCRATCH DISK ESTIMATES PER PROCESS --------------+
|                                                     Memory          Disk    |
| Baseline code, static data and system overhead        0.0 MB         0.0 MB |
| BLAS internal memory storage                          0.0 MB         0.0 MB |
| Model and support data                               99.6 MB       104.0 MB |
| Electronic energy minimisation requirements          65.5 MB         0.0 MB |
| Force calculation requirements                       52.6 MB         0.0 MB |
|                                               ----------------------------- |
| Approx. total storage required per process          165.2 MB       104.0 MB |
|                                                                             |
| Requirements will fluctuate during execution and may exceed these estimates |
+-----------------------------------------------------------------------------+
------------------------------------------------------------------------ <-- SCF
SCF loop      Energy           Fermi           Energy gain       Timer   <-- SCF
                               energy          per atom          (sec)   <-- SCF
------------------------------------------------------------------------ <-- SCF
Initial  -1.30646904E+003  0.00000000E+000                         0.95  <-- SCF
      1  -1.28044165E+003 -7.55351547E+000  -2.60273872E+001       1.47  <-- SCF
      2  -1.29048725E+003 -1.05051065E+001   1.00456003E+001       1.80  <-- SCF
      3  -1.29077684E+003 -1.06716963E+001   2.89580924E-001       2.22  <-- SCF
      4  -1.26856246E+003 -1.27835270E+001  -2.22143746E+001       3.19  <-- SCF
      5  -1.26863135E+003 -1.28025599E+001   6.88914061E-002       3.56  <-- SCF
      6  -1.29529069E+003 -1.46804909E+000   2.66593423E+001       4.61  <-- SCF
      7  -1.29529897E+003 -1.46998062E+000   8.27105613E-003       5.02  <-- SCF
      8  -1.29277873E+003 -1.46952941E+000  -2.52023748E+000       5.98  <-- SCF
      9  -1.29353216E+003 -1.37104103E+000   7.53436148E-001       6.98  <-- SCF
     10  -1.30150404E+003 -1.21583398E+000   7.97187427E+000       7.95  <-- SCF
     11  -1.30150741E+003 -1.21608906E+000   3.37462250E-003       8.38  <-- SCF
     12  -1.29773064E+003 -1.32131280E+000  -3.77677324E+000       9.34  <-- SCF
     13  -1.29773187E+003 -1.32159449E+000   1.22903563E-003       9.75  <-- SCF
     14  -1.30467412E+003 -1.19858843E+000   6.94225335E+000      10.70  <-- SCF
     15  -1.30468135E+003 -1.19839718E+000   7.23089416E-003      11.14  <-- SCF
     16  -1.30408273E+003 -1.20477935E+000  -5.98625666E-001      12.12  <-- SCF
     17  -1.30480465E+003 -1.21384103E+000   7.21920436E-001      13.09  <-- SCF
     18  -1.30480025E+003 -1.22520836E+000  -4.39950516E-003      14.08  <-- SCF
     19  -1.30531301E+003 -1.20523579E+000   5.12758066E-001      15.03  <-- SCF
     20  -1.30535364E+003 -1.21541008E+000   4.06346223E-002      16.06  <-- SCF
     21  -1.30543086E+003 -1.21774504E+000   7.72205598E-002      17.09  <-- SCF
     22  -1.30540133E+003 -1.21863074E+000  -2.95310390E-002      18.06  <-- SCF
     23  -1.30543182E+003 -1.22035368E+000   3.04843757E-002      19.03  <-- SCF
     24  -1.30544512E+003 -1.22011302E+000   1.33073930E-002      20.00  <-- SCF
     25  -1.30545274E+003 -1.22058836E+000   7.61746229E-003      20.95  <-- SCF
     26  -1.30545359E+003 -1.22072937E+000   8.48859459E-004      22.00  <-- SCF
     27  -1.30544912E+003 -1.22063037E+000  -4.46934988E-003      22.94  <-- SCF
     28  -1.30544838E+003 -1.22051917E+000  -7.35836362E-004      24.03  <-- SCF
     29  -1.30545393E+003 -1.22066246E+000   5.54293208E-003      24.98  <-- SCF
     30  -1.30545645E+003 -1.22096013E+000   2.51952221E-003      26.02  <-- SCF
     31  -1.30545661E+003 -1.22101181E+000   1.60549055E-004      26.98  <-- SCF
     32  -1.30545686E+003 -1.22106154E+000   2.56545151E-004      27.98  <-- SCF
     33  -1.30545625E+003 -1.22111058E+000  -6.13303508E-004      28.94  <-- SCF
     34  -1.30545695E+003 -1.22110272E+000   7.04380687E-004      29.95  <-- SCF
     35  -1.30545668E+003 -1.22112919E+000  -2.72126265E-004      30.97  <-- SCF
     36  -1.30545704E+003 -1.22113791E+000   3.54545804E-004      32.00  <-- SCF
     37  -1.30545694E+003 -1.22115311E+000  -1.01345594E-004      33.02  <-- SCF
     38  -1.30545691E+003 -1.22116756E+000  -2.74696002E-005      34.02  <-- SCF
     39  -1.30545697E+003 -1.22117357E+000   6.42626328E-005      34.95  <-- SCF
     40  -1.30545690E+003 -1.22119081E+000  -7.53059095E-005      35.95  <-- SCF
     41  -1.30545693E+003 -1.22119181E+000   3.50019715E-005      36.91  <-- SCF
     42  -1.30545694E+003 -1.22119584E+000   3.80075549E-006      37.92  <-- SCF
     43  -1.30545693E+003 -1.22120062E+000  -2.77869066E-006      38.86  <-- SCF
     44  -1.30545694E+003 -1.22120174E+000   7.84111138E-006      39.83  <-- SCF
     45  -1.30545695E+003 -1.22120158E+000   4.65489172E-006      40.81  <-- SCF
     46  -1.30545695E+003 -1.22120300E+000  -5.89100072E-008      41.78  <-- SCF
     47  -1.30545695E+003 -1.22120272E+000   3.25435180E-006      42.77  <-- SCF
     48  -1.30545695E+003 -1.22120281E+000   1.54643627E-007      43.75  <-- SCF
     49  -1.30545695E+003 -1.22120326E+000  -5.10277680E-007      44.73  <-- SCF
------------------------------------------------------------------------ <-- SCF
 
Integrated Spin Density     =     1.00000     hbar/2                        
Integrated |Spin Density|   =     1.00042     hbar/2                        
 
Final energy, E             =  -1305.456948387     eV
Final free energy (E-TS)    =  -1305.456948387     eV
(energies not corrected for finite basis set)
 
NB est. 0K energy (E-0.5TS)      =  -1305.456948387     eV
 

Writing analysis data to Na.castep_bin

Writing model to Na.check
 
 *********************** Forces ***********************
 *                                                    *
 *            Cartesian components (eV/A)             *
 * -------------------------------------------------- *
 *                   x            y            z      *
 *                                                    *
 * Na        1      0.00000      0.00000      0.00000 *
 *                                                    *
 ******************************************************

Writing analysis data to Na.castep_bin

Writing model to Na.check
 
 A BibTeX formatted list of references used in this run has been written to 
 Na.bib
 
Initialisation time =      0.17 s
Calculation time    =     45.80 s
Finalisation time   =      0.70 s
Total time          =     46.67 s
