#BIOSYM hessian 1
@Type: Hessian Update
@Units
 distance: 	A
 energy: 	Kcal/Mol
#header
@natom 19

#label
L1      L2      L3      L4      L5      L6      L7      L8      L9      L10     L11     L12     L13     L14     L15     L16     L17     L18     L19

#element
Li Li Li Li Li Li Li Li Li Li Li Li Li Li Li Li Li Li Li

#matrix
57
 5.082587768023E+01
 2.953699981185E+01 4.582246345560E+01
 -7.841436253219E+01 -7.169330297061E+01 2.369953067118E+02
 -6.196762207408E-01 1.384287579843E+00 -1.214532291066E+00 1.922693359176E+01
 2.469558794682E+00 -5.848548559954E+00 1.504314742494E-01 -5.872058601475E-01 2.844299972406E+01
 8.040194172147E-01 2.448038826692E+00 -2.391108069878E+00 1.560795416508E+00 6.765040935272E+00 2.572561727440E+01
 1.179360592015E+00 1.458065463375E+00 -2.543569392703E+00 -6.300336978625E+00 -6.092480205213E-01 -7.422157293841E-01 2.444213675873E+01
 1.248143509186E+00 1.304113825584E+00 -1.854317779092E+00 6.223233679575E-01 -1.443430412730E+00 1.536311686377E+00 -5.131289076012E+00 2.943310022769E+01
 -3.957193533043E+00 -2.820516597513E+00 8.343843991925E+00 -3.505186556336E+00 -1.869877901416E-01 -3.314707756571E+00 -2.908473242829E+00 2.189691591598E+00 2.347253633568E+01
 -4.916247060480E+01 -4.146747141125E+01 1.289371674133E+02 -7.247147728560E+00 -4.369034355736E+00 -3.647464451402E+00 -5.552653989510E-01 -1.147796590896E+01 8.156396945404E+00 1.849808854396E+02
 2.691773518114E+01 2.322354345475E+01 -7.108440564424E+01 2.954130997134E+00 3.015392162583E+00 3.100339007205E+00 -3.457122619266E+00 7.523106919095E-01 -1.903814684033E+00 -9.774408907894E+01 8.351976788932E+01
 -1.965272908217E+01 -1.691213160209E+01 5.090003889563E+01 -1.901880543495E+00 -1.423424275634E+00 -2.848006124776E+00 5.574804790430E-01 -3.030257692751E+00 7.034470312431E-01 6.295936731397E+01 -4.495312514442E+01 5.049689310904E+01
 3.048097234166E+00 7.272343978380E+00 -2.451431189863E+01 1.522466150483E-01 -6.105209274914E+00 -3.779572345849E+00 -3.839730729283E+00 4.272066041955E+00 -5.313837313521E+00 -1.422577402206E+01 -5.044939067186E+00 3.631058051564E+00 4.953053002814E+01
 1.790490314639E+01 1.198300756274E+01 -2.689772551831E+01 -6.914304232706E+00 -1.728289036432E+01 -1.190109096144E+01 9.773969903759E+00 -1.938988941468E+01 -1.467322256835E+00 6.690371314037E+01 -5.657913310861E+01 3.087786202688E+01 2.767602570473E+01 2.484021213026E+02
 -1.127638800710E+01 -1.869831893210E+00 -3.901871188177E+00 -1.452091173332E+00 -1.266913295190E-01 9.602824532644E-01 -3.848301733565E+00 7.771500040138E+00 7.278760346513E-01 -3.571842857147E+01 2.730123833502E+01 -1.703767594083E+01 -2.795773802552E+01 -1.220450421279E+02 1.476665054790E+02
 -9.632501744020E+00 1.331104417087E+00 4.281645218183E+00 -3.882739033724E+00 -2.383292310020E+00 1.992730468752E+00 -2.445831841294E-01 6.942903667923E-01 -1.461856836577E-02 3.562675910736E+00 -5.608929728460E+00 -1.176035444017E+00 -1.969563013952E+00 5.667510428204E+00 9.668074462357E+00 1.728842749336E+01
 1.063203514710E+00 -2.532842372086E+00 2.047314048940E+00 -2.789965479424E+00 -2.391279975147E+00 2.182908391956E+00 -1.044193750654E-02 -2.821744241065E+00 4.935941142565E+00 1.230300373494E+00 -2.716489286681E+00 -2.221116293674E+00 3.672535647663E+00 -4.981540918725E+00 -5.082413512226E+00 -3.361825687505E+00 1.929400247638E+01
 -1.966670151795E+00 -2.294586404877E+00 6.565619908092E+00 3.240843662485E+00 1.841246537568E+00 -1.941357456776E+00 8.399564716042E-02 2.660466375707E+00 -5.654285124754E+00 -5.511783009435E+00 6.688362607679E-01 -5.847512116368E+00 8.459524793189E+00 -1.433318873871E+01 -1.759012684775E+01 -9.329772045441E+00 5.781626943872E+00 3.041525331743E+01
 -8.219889614795E-02 5.915919199044E-01 -1.040310509778E+00 -3.519758669948E-01 3.893848694101E-01 -2.731888956350E-01 2.335943784663E-01 -2.156086838743E-01 -2.055348340705E+00 -5.182618814835E+00 7.138950041110E-01 -3.164701920209E-01 2.647542028322E+00 -4.081837694415E+00 2.201845332421E+00 1.560260352439E-02 6.664916604903E-01 -1.461434479567E-02 2.721077228784E+01
 -9.386358937317E-01 -5.872758592563E-01 2.202208199562E+00 8.617180418908E-01 -8.653308630880E-01 -7.910512178769E-01 1.483916311817E+00 -2.617841886782E-01 -1.398770883108E+00 1.261947941532E+00 -2.170708786031E+00 1.606695538346E+00 8.315956289729E-01 7.359757738954E-01 9.752013493799E-01 4.734627795792E-01 -1.693304850684E+00 4.210120682643E-02 -1.934234962255E+00 2.133725660111E+01
 -1.970377154223E+00 -9.491499822598E-01 3.535452477948E+00 -2.243796803107E-01 1.072091820680E-01 -9.109483184909E-01 8.370716083273E-01 -1.417881833378E-02 -9.865027231513E-01 5.820553072105E+00 -3.405963727547E+00 1.736575784670E+00 2.950084799175E-01 2.389115559602E+00 -7.265638353286E-01 5.583185049233E-01 -8.839688826883E-02 -5.113691629283E-01 -4.571926016104E+00 1.714450708519E+00 1.773442480910E+01
 -1.085420574121E+00 -2.634552271006E+00 2.141619395334E+00 -1.159237538226E+00 -2.646499747209E-01 -1.018767035443E-01 -2.006358726528E-01 1.108314006968E+00 2.414747960204E+00 2.012019938118E+00 -6.395520912325E-02 -6.541433086402E-01 -1.853149443617E+00 -1.331396712132E+00 5.193163260625E-01 -4.093723119097E-02 6.880905160087E-01 -9.111101977909E-01 -5.233776759109E+00 -3.080324401240E+00 -7.138252666255E-01 2.068266351276E+01
 2.412910509929E-03 6.670816418393E-01 -1.399283607307E+00 5.929079556903E-01 -5.995403908762E-01 2.613441831255E-01 -2.071234497861E+00 -6.594726406772E-01 -2.009544438360E+00 -3.505757069919E+00 3.541147375811E+00 -2.317491789174E+00 1.227676912577E-01 5.842013636777E-01 6.659628440404E-01 -4.477804546221E-02 -1.126296482873E-01 1.219791150404E+00 -2.591114484068E+00 -3.620011647699E+00 3.797174896166E-02 -2.668217963935E+00 2.813505681655E+01
 8.541097322215E-01 1.069364370788E+00 -5.773159684442E+00 -1.257931555515E-01 2.772015846160E-01 -5.265469963189E-01 6.322097842645E-01 4.355941263387E-01 -2.035018430031E+00 -1.667993310021E+00 -8.245197842673E-01 -1.384459599811E+00 1.877115624939E+00 -3.402657749487E+00 2.299483380598E+00 7.438070069629E-02 -1.097271097865E-01 1.491026623682E+00 -2.515855091122E-01 9.198760012310E-01 -1.054853326379E+00 5.527293415878E-01 7.011461743568E+00 2.474298771223E+01
 -2.273958048542E-01 -3.302447959268E-01 3.167738664584E-01 -7.757537972023E-01 -1.352625560619E+00 4.954044965658E-02 -5.960352214468E-01 -4.755640142108E-01 3.056292462525E-01 1.718264308451E+00 -1.110751538504E+00 -1.257791076840E+00 1.541783330084E+00 4.116468281796E+00 -1.185697510739E+00 -1.768246101608E-01 2.972707590642E-01 5.163553455101E-01 -4.006083635969E-01 -4.733552118361E-02 -4.568184407810E-02 -4.621814254359E+00 2.461520602833E+00 -2.362849840152E+00 1.994674449727E+01
 2.762211929650E-01 -8.374202591943E-01 1.415774875008E+00 -5.636169886056E-01 -1.859757338919E-01 -3.788768148715E-01 5.733500653721E-02 -7.487720285112E-01 -4.650231029371E-01 -1.696763140122E+00 1.432574234994E+00 5.225876856254E-01 -9.222256047088E-01 1.208677262614E+00 1.083176565376E+00 -1.777239800650E-02 -3.555757764997E-01 -9.721381602564E-01 2.978813266599E-01 9.668529431595E-01 -7.895371139657E-01 2.487470857376E+00 -1.752831105608E+00 2.829949485642E+00 2.525984502230E+00 2.297246517034E+01
 2.699214046850E-01 3.654936564681E-01 -1.446880611403E-01 -2.675388335275E-01 1.180088707216E+00 -3.554953077114E-01 -7.494839074347E-01 -2.641870964947E+00 -1.040331208356E+00 2.089968246278E+00 -2.299185450131E-01 2.727657784879E+00 -4.007439672075E-01 -1.886668867577E+00 2.828175162125E+00 -2.548272677740E-01 -3.317294724529E-02 -1.340722600787E+00 1.724562658125E+00 1.186065669627E+00 3.512128516277E-01 -2.868913059796E+00 2.422662135968E-02 -2.493001729821E+00 5.652416401789E+00 2.276464588214E+00 2.390758300526E+01
 -1.477686131328E-01 9.583074562253E-01 -8.567135591618E-01 -6.402130613615E-02 1.844929319061E-02 -1.124477250175E+00 2.098382141502E-01 4.930824054000E-02 -1.809929796015E+00 -8.232480143360E-01 -6.572444437372E-01 1.143864949027E+00 1.064396532051E+00 -3.790773912713E-01 1.973722791526E+00 -6.602985893936E-02 -4.338560364343E-01 -9.356755966778E-02 6.764960636876E-01 1.021186624766E+00 1.214933359157E+00 6.419721965629E-01 8.944330414200E-01 -1.986997753521E-01 -1.569507675462E+00 -1.019408901902E+00 3.055589823231E-01 2.085526173896E+01
 1.323570800483E+00 8.842654112940E-01 -2.522173453491E+00 4.032561025242E-01 9.113321048425E-01 -1.549051441546E+00 4.989624344032E-01 3.953009236639E-01 1.124278947105E+00 1.540160772309E+00 -1.302987222020E+00 -7.443295952733E-01 -6.158942975571E-01 5.180033957482E-01 -1.138181423059E+00 -6.666693535142E-01 -9.460714314463E-01 8.191925095583E-02 -6.741975337350E-01 1.122312778389E+00 4.175965281212E-01 4.491719209948E-01 -5.886977748484E-01 2.895844071051E-01 -3.206800181791E+00 -8.427061890320E+00 3.188664149161E-01 -2.539709108531E-01 2.122810135830E+01
 2.117367114170E-01 4.291744983501E-01 -2.336635108758E+00 -1.004941015602E+00 1.160575268087E-01 -1.641230096412E+00 -4.948351370025E-01 -6.428351190732E-01 2.995987136070E+00 -8.586674344314E-01 2.370646957166E+00 -7.393723196210E-01 -5.251313034708E-01 9.436938893879E-02 -1.386884249189E+00 -3.147439652065E-01 1.336109993501E+00 8.613378849991E-01 -6.281224583109E-01 -2.149621027491E+00 3.205710109440E-01 4.665072253400E-01 1.608040418183E+00 -2.270176131606E-01 3.331289323285E-01 1.053218698988E-01 -9.270848667192E-01 1.505782140000E+00 -1.806456258065E+00 3.236020828717E+01
 1.293965250649E+00 -2.986786234949E-01 -3.656441882180E+00 -1.055861630098E+00 -5.611334797057E-01 -1.239412381664E+00 3.535811996380E-01 -2.660358889040E-01 7.621077016781E-01 1.272586303454E+00 6.983505910995E-02 1.713008233149E+00 6.678956469608E-01 -9.784449997728E-01 -1.725165733510E+00 -1.501903445785E+00 -4.859385015493E-01 -5.112927735991E-01 -2.321383294248E+00 -9.084040236441E-02 -1.309693652758E+00 5.219065145011E-01 -5.385269088311E-01 3.008220847994E-01 4.391336724366E-01 -1.293725863893E-01 2.859723505934E-01 -6.873443388472E+00 1.160394437348E+00 -1.696549878463E-01 2.455440805497E+01
 -1.602338999005E+00 -1.836763754286E+00 5.476688833514E+00 -9.030897153089E-01 -6.249220130062E-01 8.471948126797E-01 1.092189599286E+00 3.016505814047E-01 1.533175008890E-01 3.714644760249E+00 -3.253486018811E+00 2.158534490284E+00 1.800936368386E+00 6.035046090155E+00 -4.010811096024E+00 5.556349793577E-01 -3.339965057588E-01 -1.400965086060E+00 7.806859497688E-01 -6.464724543611E+00 2.950575056478E+00 4.462184602892E-01 -1.549780788571E+00 -2.822227962158E-01 -7.396832496358E-01 -8.966496450864E-02 9.186228382011E-01 -3.000684644244E-01 -5.881567969344E-01 1.072670876004E+00 1.285707272920E+00 2.128842486345E+01
 1.350869255504E-01 4.497176946321E-01 5.720093003194E-01 -3.901942413729E-01 -1.992162803015E-01 1.327139181235E+00 -1.058197956118E+00 1.623908238354E+00 5.980133562974E-01 -3.463550716106E+00 2.161887341593E+00 -3.181992640512E+00 -1.141473749070E+00 -4.367589690707E+00 2.801629996958E+00 -2.109802284101E-01 1.188017647381E+00 6.499843209765E-01 1.057614075955E+00 1.540023504890E+00 -9.565854268183E-01 -1.690553157248E-01 4.755886990715E-01 7.604222335620E-01 2.003170858106E-02 -3.671396333129E-01 -5.247594241178E-01 -2.638276342401E+00 1.491335305526E+00 -2.550450128791E+00 -5.494417253449E+00 -4.553198513300E+00 2.225499407580E+01
 4.045445185268E+00 1.317462124516E+00 -9.047650355356E+00 8.175029513219E-01 -1.764904297067E-01 7.345786346183E-01 -7.626788602376E-01 -4.125212104850E-01 -9.893717742792E-01 -9.083840247472E+00 6.231265130701E+00 -4.372381776400E+00 -5.014766867502E-01 1.027646599414E+01 -5.767674382093E+00 -1.149587325970E-01 7.941868781976E-02 7.399195866105E-01 -6.751464699203E+00 -2.534792160518E+00 7.122246195627E+00 -8.637313680190E-01 -1.221975302803E+00 -3.707449897314E+00 2.314000640647E-01 -3.421363925237E-01 -7.813253821797E-01 -3.230600485110E-01 5.646995004030E-01 2.964213835889E-01 2.112094910186E+00 9.225567437035E-01 -1.477077698285E+00 2.757935681019E+01
 -2.147867427881E+00 -7.272768674184E+00 -2.775985665455E+00 -4.823679192712E-01 1.053110860263E+00 2.443364100817E+00 -1.243813664495E+00 -5.823238519339E-01 1.622270169888E+00 4.833217193900E+00 -1.645475060655E+00 2.521696652894E-01 1.807419939804E+00 -8.348742631951E+00 5.389889204560E+00 3.174982665296E-02 1.792147329815E+00 6.002159419245E-01 -1.916095489150E+00 -1.287796474714E+00 1.917787890821E+00 -1.863796756998E+00 -3.178207557374E+00 -6.406649569484E+00 6.312046994272E-01 1.776424120540E-02 2.441396386741E-01 -6.175632094442E-01 -4.832956039795E-01 6.007042735032E-03 1.562485917562E+00 1.003029763784E-01 -2.152276213196E+00 5.854662958896E-02 2.170452700671E+01
 -4.074869200225E+00 -8.010249851678E+00 -5.914603014528E-01 8.364759350860E-01 -2.838530484146E-01 9.898765578931E-01 3.013760786822E-01 -8.961441361030E-01 -1.515546517525E-01 8.311446016652E-01 -1.469478786404E+00 2.741222743583E+00 -2.328623787230E-01 -5.697048799119E+00 5.312884760140E+00 1.429803652189E+00 -5.872819594570E-01 -9.643602458764E-01 7.319235720032E+00 1.975374662383E+00 -6.566069291934E+00 -2.937854591897E+00 -7.061435025102E+00 -1.191479291487E+01 -3.851769656157E-01 9.322620976345E-01 8.658254081494E-01 -1.096609548475E+00 -1.609086297205E+00 -1.383076947740E+00 3.898411239038E-01 3.898491219626E-01 -6.353010593680E-01 -5.887620122126E+00 8.309451000857E+00 3.571731046491E+01
 -3.468444587847E-01 1.082074433462E+00 -1.970065245890E-01 2.685796011867E-01 1.963078590875E+00 -1.162907889944E+00 1.814787090436E+00 -3.809180831439E-01 -8.581949180801E-01 -3.305032582598E+00 7.001278341913E+00 5.135000693781E+00 -4.846721404191E+00 -1.579354417227E+01 5.550414010302E+00 2.318584010272E-01 -1.292421979873E+00 1.667181992007E-01 4.581138259854E-01 -1.470357997639E+00 -9.528008410020E-01 -8.942439622344E+00 4.368456550325E+00 5.806085618554E+00 -6.755010952972E-01 3.441621039457E-01 -4.161151414037E-01 1.014849783229E+00 -8.141028597502E-01 1.843067116295E+00 1.606675941147E+00 -5.109288589649E-01 -4.483113373332E-01 -6.911013171828E+00 1.043068812914E+00 -1.989603013447E+00 3.070424953512E+01
 -2.368675934560E+00 8.042477676205E-01 3.651500999897E+00 -1.818995316153E+00 1.361647714296E-01 2.242754845318E+00 -3.125562836739E-01 -1.907327486631E+00 1.907587738853E+00 1.674160850215E+01 -1.047060178880E+01 -1.069749313466E+00 -5.850877558515E+00 -5.643601227202E+00 2.715364149342E+00 8.563090373057E-01 8.062481859409E-01 -9.342087395434E-01 -9.160656592273E-01 4.158448703629E-01 1.005047294245E+00 5.819932389912E+00 -4.615787425840E+00 -2.915550827086E+00 1.021632287863E+00 -2.138376677195E+00 4.137661325975E+00 -2.353091870235E-01 1.138079347439E+00 -8.708685197628E-01 2.084103180835E+00 -9.496783918794E-01 -7.836476154650E-01 -8.590711591905E-01 -1.582550194171E+00 -1.108072792025E+00 -4.139354771251E+00 2.651281911456E+01
 -1.894687175163E+00 -4.151772424663E+00 6.566546999717E+00 -6.715277186613E-01 -4.083016296276E-01 -7.966581848163E-01 9.944538590532E-02 1.128592433071E+00 5.409659687831E-01 1.067121239402E+01 -8.246408687817E+00 -1.439421617673E+00 -2.548993948592E+00 5.719459344494E+00 -9.372961516020E+00 -6.630017745108E-01 -7.419219432707E-01 2.614689670982E+00 -1.867174358781E+00 -8.529053493708E-01 1.153906847064E+00 6.695465539863E+00 -1.806691797729E+00 -4.864098323546E+00 -1.067572500524E+00 2.719578741436E+00 -1.382743597992E+01 -3.419526630502E-01 1.300242501678E+00 -3.695632439933E-01 6.061176977035E-01 -1.059125233623E-01 -3.478331663432E-01 1.763842317266E-01 1.160286950057E+00 -3.139274901141E+00 -6.104493726916E+00 5.435090791985E+00 4.280835138094E+01
 -1.527693413210E+00 -7.784457751809E-01 4.161744299932E+00 -2.584416595459E-01 -1.091698709388E+00 -1.127880117587E-01 -8.976198505343E-01 4.414213293891E-01 1.156912205340E+00 2.427828229021E+00 -5.362320139389E+00 6.361820570926E+00 -2.447615570482E+00 -5.492180585718E+00 1.483115454887E+00 1.761592697939E+00 3.550971020536E-02 -7.628373336062E-01 -7.561018548214E-01 1.940419531847E-03 -1.047646888147E+00 -8.453231176203E-01 -4.088091986574E-02 -4.433257041159E-01 1.912736714548E+00 1.796506628333E+00 1.948308523175E+00 -5.416622874417E+00 -2.702089736182E+00 6.802665924147E+00 -3.906892258522E-02 -3.035555436841E-01 -1.365704376250E+00 -1.146338917423E+00 8.796906093223E-01 2.283246758870E+00 -1.620112150025E+00 2.430270397180E+00 -2.079228421278E-01 2.055036136079E+01
 -1.511971473471E-02 -9.847452530335E-01 -1.525363777658E+00 1.170008158930E+00 1.305237483823E+00 -2.625594324920E-01 -8.207563020151E-01 -9.250416118700E+00 -9.434766306895E+00 -3.539671719098E-01 -5.646688904636E+00 6.392338929667E+00 3.873901661282E+00 3.805180274187E+00 -3.699514723419E+00 -6.591567169324E-01 1.761509422948E-01 1.793595088199E+00 2.357127284739E+00 -6.723940640483E-01 -2.924954820587E-02 -1.669074272797E+00 2.051772781969E+00 8.210223678938E-01 1.314856416552E+00 -8.961650172807E+00 -4.191998989654E+00 -1.143103458412E+00 -5.877608470464E-01 3.400532313312E+00 1.458175685712E-01 6.530129852771E-01 -4.650363958151E-01 3.997010639857E-01 3.897700393446E-02 8.292062742744E-01 9.735471625554E-01 -4.851701700562E+00 8.029117581544E-01 5.321848182864E-01 2.821959441416E+01
 2.237098861224E+00 1.088629437418E+00 -3.247576443635E+00 -1.435697911076E+00 9.171577105632E-02 -1.134591786443E+00 5.279319813413E-01 -6.544575990007E+00 -8.156261647777E+00 1.208937867187E+01 -2.033664419639E+00 -5.480349924633E+00 -1.910211561364E+00 7.931989021920E+00 -6.448095261025E+00 -4.532022353025E-01 -1.528164715766E-01 7.565038313885E-01 -6.526746302322E-01 3.683950666427E-01 -8.585299734221E-02 7.914289688239E-01 7.543108395369E-01 9.605515500872E-01 1.789705113664E+00 -4.870829586104E+00 -2.722029238959E+00 7.769727796265E+00 3.294320554557E+00 -8.880939022887E+00 -4.778555589789E-01 -2.556498320825E+00 1.762855666919E+00 -9.081341341576E-01 3.801630689537E-01 -2.070675630484E+00 2.594488047491E+00 4.632884717704E+00 -8.493756954858E-01 -1.023607914119E+01 5.278748635427E+00 3.618885606267E+01
 -8.762373656885E-01 -4.526966886034E-01 3.513210590829E+00 -1.234352814609E+00 1.541430395629E+00 -4.078032089532E+00 -1.048121378619E+01 4.699198966242E-01 9.281581242250E+00 3.688348927615E+00 -3.354394367326E+00 1.083348360456E+00 -2.938266115495E+00 -2.451976975844E+00 7.823355259365E+00 1.540612546014E+00 7.218904935472E-01 -3.076740203835E+00 1.410420794328E+00 1.461425000237E-02 3.317684003360E-01 1.777428967834E-01 -4.117890347746E-01 -9.974170437841E-02 -5.515223698688E-01 -4.267428132151E-01 1.154614038116E+00 -2.078850657843E+00 -1.992751135908E+00 -5.653119199844E+00 -1.190708735233E+01 4.357079784995E+00 7.277717801957E+00 -2.201079474826E+00 1.996424880905E-01 1.206110698433E+00 -2.467449786309E+00 -1.106146675233E+00 -1.403761728193E+00 -2.325785746530E+00 -3.046526437286E+00 -2.430562202408E+00 3.455035174308E+01
 5.508878576155E+00 7.881568431153E+00 -2.400667267163E+01 -2.393218444624E+00 9.378707608445E-01 -3.244413853089E+00 3.131786673633E+00 -2.029146549868E+00 -6.979131831416E-01 7.643713862723E+00 -7.392083933925E+00 5.636038867408E+00 -3.214060108464E+00 -1.886172065632E+01 2.847776803477E+01 1.446442490417E+00 1.297433912909E+00 -4.034528585050E+00 -1.565855040406E-01 9.700483103263E-01 2.707789839918E-01 -3.898473590101E-01 -2.613101982042E+00 2.209284977180E+00 -1.207235122788E+00 -6.435733394868E-01 3.605313232025E+00 -1.415405212132E+00 -6.315557727749E-01 -6.215300551091E+00 4.841841234469E+00 -3.526185317936E+00 -4.083425358909E+00 -4.810687270183E+00 2.337869596615E+00 1.801208318124E+00 5.503963818483E+00 4.794699128305E+00 -3.874986159732E+00 4.876810800499E-01 -4.315103097541E+00 3.359160875830E+00 3.258630030412E+00 4.834619712894E+01
 -3.416683612103E+00 -3.703635027375E+00 1.502759741879E+01 -2.188165472165E+00 -4.185089915144E+00 -1.080912056314E+01 4.159343944955E+00 -1.849274099698E+00 -4.386824992731E+00 -6.530994122454E+00 7.566722181659E+00 -3.498435270413E+00 6.918772706985E+00 2.439314842773E+01 -3.111689488865E+01 -9.263771055608E-01 -3.951374863543E-01 4.275662144022E+00 4.304278862805E-01 -7.668958257124E-01 -1.203873887112E-01 -5.490346245579E-01 1.893062833678E+00 -9.871614877778E-01 1.580522012509E+00 1.577875709184E+00 -3.058926481308E-01 -4.300512819154E+00 -6.949420830953E+00 -1.271900552051E+01 6.321254831988E+00 -1.779924780620E+00 -3.914304463623E+00 6.012349553500E+00 -3.376495346274E+00 -1.745609596742E+00 -1.960706168065E+00 -4.852290718937E+00 1.793160553364E+00 -3.500977078233E+00 -1.110174890010E+00 -4.718575664213E+00 -8.515632866597E+00 -1.674558272046E+01 6.076255733741E+01
 -3.129106513949E+01 -2.847692387768E+01 8.148667623883E+01 -6.229057986406E+00 5.320502908018E+00 3.871298861427E+00 2.560820550979E-01 -9.730524115506E-01 2.456655520384E+00 5.138789290047E+01 -2.859064014127E+01 2.025673944929E+01 -1.569703441244E+01 -1.154448120184E+01 5.581991332326E+00 2.398333577720E+00 6.443641548090E-01 1.621914765549E+00 -8.127440415169E-01 3.301808610117E+00 3.163482446121E+00 1.866066067022E+00 -1.939941226006E+00 -1.243318189254E+00 -4.937847309959E-01 2.439589869857E-01 1.023455267139E+00 4.246058865627E-02 5.182037645330E-01 -9.304594753006E-02 -1.104745982285E+00 1.643826504731E+00 7.992652982190E-01 -6.354121003870E+00 -8.100860290466E-01 9.317538489628E-01 7.626301239809E-01 3.099579471066E+00 2.995531936977E+00 1.409287662909E-01 -5.468577423984E-01 -2.905394962304E-01 -3.451349054840E+00 -1.998311209308E+00 1.161250160308E-01 5.164205902440E+01
 -3.048310116644E+01 -2.656854002659E+01 7.521029753945E+01 6.057501850416E+00 -8.988156365787E+00 -5.551872567938E+00 -9.689612975126E-01 1.395499993209E+00 3.485765593410E+00 3.862665657410E+01 -2.181628583675E+01 1.731230160021E+01 -6.192274651240E+00 -1.674638579629E+01 5.093100869810E+00 1.657770548539E+00 1.589081497898E+00 1.706669347684E+00 2.653235151975E+00 -7.425496357978E+00 -4.580181798609E+00 4.141717426001E-01 -2.959453238344E-01 -3.183081427397E+00 -2.212367652137E-02 -1.299939954337E+00 -1.803276486169E+00 -1.262616877875E+00 -8.318304128621E-02 -4.887094410265E-01 -2.519154467788E-01 -1.592365554650E-01 6.385015271740E+00 -3.597837030659E+00 -5.784493188238E+00 3.040443051124E+00 3.337191054317E-01 -5.247247663811E-02 1.776597210199E+00 1.008190325491E+00 1.055555059295E+00 -2.865577438341E+00 1.783296269266E+00 -9.248290685027E+00 4.976152986147E+00 2.237713504604E+01 5.354095738830E+01
 9.161897838617E+01 8.243891691259E+01 -2.418820900669E+02 5.657184333065E+00 -2.270730347795E+00 -1.202732150156E-01 3.191939795016E+00 1.709509403555E+00 -9.623289939258E+00 -1.428942340802E+02 7.870009667078E+01 -5.584190601778E+01 2.497117064307E+01 4.527318549915E+01 -1.430216448871E+01 -3.845801289841E+00 -2.634140174851E+00 -6.019100091066E+00 2.277641966508E+00 -7.108468845690E+00 -6.248246236205E+00 -3.329488677393E+00 -1.155429912763E-01 3.274345916969E+00 -1.274456440483E+00 -3.456467229321E-01 -1.597382890349E+00 4.452600187248E-01 2.068035442754E+00 3.710706191545E+00 3.610265588720E+00 -5.704806217507E-01 -1.278979473767E+01 1.089090345157E+01 -4.603785501934E+00 -6.533750856727E+00 -1.884577217941E-01 -7.053580563530E+00 -5.720641468710E+00 -3.315205867710E+00 8.357999320542E-01 1.336057662323E+00 -6.037871654928E+00 1.915252274532E+01 -1.411217982023E+01 -9.311424211141E+01 -7.597222892500E+01 2.859790346235E+02
 7.676944241341E-02 -5.032945240924E-01 1.513861648641E+00 9.253808796882E-01 2.276091195846E-01 -4.284895841322E-01 -9.019555489671E-01 -3.831730484945E-01 1.224434869225E+00 2.685175393353E+00 -1.596341764925E+00 2.288103857764E+00 -2.587376056231E+00 -3.265585501041E-01 -1.067371969771E+00 -1.968148805659E+00 -2.283040955504E-02 4.139656860177E-01 -2.820925587226E+00 -1.590402791401E-02 -4.535314391791E+00 -5.340343010615E-01 -1.227635091843E+00 2.673044332409E-01 -7.685016756404E+00 -8.085167856565E-01 9.563764009889E-01 -4.437512948248E+00 3.923917078383E+00 8.458373837815E-02 -1.186817132378E+00 -2.366465962328E+00 -1.422878621348E+00 -6.000994905927E-01 3.233388410147E-01 -3.986841398298E-01 8.163524373842E-01 3.945300727277E-01 1.679472213290E+00 5.280805710626E-01 5.916358416250E-01 8.944362669298E-01 4.616694806581E-01 3.196217585030E-01 -9.281963235828E-01 2.384243397854E+00 4.737173315998E-01 -2.642794389187E+00 2.039690350620E+01
 -3.476732943139E-02 -4.022226829685E-01 -6.614632994043E-01 2.451698097312E-01 2.392527622397E-01 -4.346743265559E-01 4.262070073250E-01 -2.079430647924E-01 -1.035301437544E+00 9.812956023949E-01 -1.252564832709E+00 3.001729064643E-01 6.685299473231E-01 -3.027074196342E+00 1.964910255031E+00 -3.157038865360E-01 -8.921688051681E-01 -2.315772251991E-01 6.646795312827E-01 -9.121683849757E-02 3.716220746460E-01 -1.453558210903E+00 -2.156531499919E+00 3.472818842226E+00 2.982764993314E-01 6.175435362450E-01 6.244553070476E-01 3.502586593690E+00 -6.559990824431E+00 -1.617190363927E+00 -3.168736419994E+00 -4.688455862216E+00 -2.668980129363E+00 -8.878537431866E-01 1.150160013840E+00 1.823476784017E+00 -1.063500874768E+00 6.298596050920E-01 2.219328620052E-01 8.229928880488E-01 3.576503522693E-01 -8.163634917137E-02 8.297056897137E-01 2.806476410205E+00 -8.300687109183E-01 -2.199236735589E-01 -6.700824117298E-01 8.317824105141E-02 -3.703550204244E+00 1.527471065873E+01
 7.784828217862E-01 -1.788030329018E-01 1.711454786518E+00 -6.781002207883E-01 1.204721367943E+00 -5.428634323826E-01 8.546389331395E-01 1.503054583059E-01 7.409508491558E-01 8.222033960362E-01 5.402879838156E-02 -4.136228844912E-01 -1.102230831820E+00 1.709588997858E+00 2.998707842751E-01 5.502915699983E-01 -7.578401908992E-01 -2.839908975336E+00 -3.759625522384E+00 -4.290031903543E-01 -4.726163163713E+00 8.176791382818E-01 2.982613987400E+00 -4.011253933302E+00 2.523401312909E+00 -1.613575296001E-02 -2.589407517979E-02 -4.951276992727E-01 8.395498907041E-02 7.842186842176E-01 -1.722101299116E+00 -2.253137910941E+00 -2.235562707687E+00 2.402122045332E-01 -9.476417953531E-01 -1.382842666052E-01 -2.963615990785E-01 -7.066037784904E-02 1.678296552221E+00 -3.968858686653E-01 -1.027227472296E+00 6.654712625994E-01 -8.974322736839E-01 2.049717761956E+00 9.118235074726E-01 1.232319946476E+00 1.396560334952E-01 3.195747235557E-01 -5.987874196899E+00 4.957033897829E+00 2.903726477099E+01
 1.511251392467E+00 6.160018730280E-01 -3.989285164445E+00 1.325606467824E+00 6.647215299665E-01 -3.471168800349E-01 -7.873331945879E-01 -3.976907563539E-03 1.421831922745E-01 -5.986523396408E+00 6.465276352937E+00 -4.782576742553E+00 -1.030329049495E+00 2.360241578255E+00 4.750013035371E+00 -1.401975406526E+00 -9.356572723964E-01 1.650375734569E+00 -1.069588250363E+01 3.576575047376E+00 2.448815488364E-01 5.565491781789E-01 2.421422052581E+00 -3.796706550746E-01 -6.989412945848E+00 -4.122717945260E+00 -6.351003767853E+00 -1.939218742503E+00 2.695690532382E+00 -2.763161060578E+00 -4.179709522623E+00 -5.712202003491E+00 3.743878868873E+00 1.593799673440E+00 1.137012824214E+00 -3.650541349908E+00 -5.627170069688E+00 -4.041473482928E+00 2.009603796521E+00 -7.120350056639E+00 1.154956514293E+00 1.129871644896E+00 -3.064836664539E-01 -2.469392039649E+00 1.504860924765E+00 -4.695451798675E+00 -2.859795838453E+00 2.241701740612E+00 -2.166618293253E+00 3.126105481624E+00 9.699441314420E+00 3.945657601344E+01
 -4.442858314606E+00 -4.875187344758E+00 1.329597812466E+01 1.808620281679E+00 -6.475067607063E-02 -1.192493303351E+00 -1.342001183709E+00 2.310898295122E+00 3.657265384019E-01 -4.068073024271E+00 1.946166086388E+00 -7.564885239400E-01 9.126861787242E-01 -1.120925754531E+01 -1.613389433076E+00 -1.176093555991E-01 5.614584388871E-01 2.144903309137E+00 3.835080034512E+00 -6.942984885892E-01 -6.894395924393E-01 1.981044595466E+00 -1.218715166816E+01 -1.971536713314E+00 -4.150752038766E+00 -2.887877111250E+00 -3.560207905471E+00 2.087285428075E+00 -4.415401051381E+00 3.200865814190E+00 -5.856046860438E+00 -4.517540775198E+00 2.464617264206E+00 -5.065791620710E-01 -1.401083446278E+00 2.996599561184E+00 -2.893723115518E+00 -3.474817023440E+00 -3.937631229825E-01 3.495826593012E+00 -1.106137753444E+00 -1.490790344366E+00 1.868926377870E+00 -1.125480330934E+01 3.451610890942E+00 3.952591539439E-01 3.396378195618E+00 -1.393297322385E+01 3.846668257165E+00 -6.824519894126E-01 -7.273067857315E+00 -3.751474027104E+00 3.944081905956E+01
 -2.488344906263E-01 -1.114901093223E+00 5.572865608066E+00 1.710380976261E+00 4.497057210764E-01 -7.907424236049E-01 -2.315788032148E-01 -4.344141129722E-01 4.092070857217E-01 4.945226781819E+00 -3.173610627111E+00 3.504139670465E+00 5.502593214554E+00 8.475362417349E-01 -2.002545706319E+01 -5.756767663603E-01 -1.000466007827E+00 -3.203222190115E-01 -5.302327870835E-01 7.417008979147E-01 -3.790670971338E-01 -1.034432531820E+00 -2.871956942048E+00 -3.912639277148E-01 -5.922117775985E+00 -5.833825836924E+00 -4.415764476579E+00 -2.410243034492E+00 4.928161974909E+00 -8.050386987108E+00 4.359589079732E+00 3.254275246722E+00 -1.644838890500E+00 -3.693168844736E+00 2.622687727250E+00 -3.382988640368E+00 3.433981032586E+00 -1.284106389770E-01 1.832214322827E-02 -1.911295219771E-02 1.777187929321E+00 2.804902209910E+00 7.615193372366E-01 3.043998742881E-01 -9.840858996108E-01 -1.081709830671E+00 8.368844513498E-01 -6.926274361511E+00 9.672751300521E+00 -6.522192545086E+00 -2.033113173872E+01 -8.030055332939E+00 9.334307459044E+00 5.632470853456E+01