#BIOSYM hessian 1
@Type: Hessian Update
@Units
 distance: 	A
 energy: 	Kcal/Mol
#header
@natom 19

#label
L1      L2      L3      L4      L5      L6      L7      L8      L9      L10     L11     L12     L13     L14     L15     L16     L17     L18     L19

#element
Li Li Li Li Li Li Li Li Li Li Li Li Li Li Li Li Li Li Li

#matrix
57
 2.705026662243E+01
 -7.193777910794E+00 2.331458651777E+01
 5.660427706285E+00 -1.228296308591E+00 3.017821178079E+01
 -1.365498580868E+00 1.267943577325E+00 -3.909522088745E+00 2.659958667395E+01
 1.120015617730E+00 -6.286677457483E-02 -6.506825441277E-01 4.084702250137E+00 2.413829383978E+01
 -1.128887588700E+00 9.475290476706E-01 -9.797551397383E-01 3.239165334969E+00 7.984954514571E+00 1.994709515699E+01
 3.243649212038E-01 -1.790625593611E-01 -1.132902094728E+00 -1.158387581055E+00 -1.439244855862E+00 5.099414413890E-01 3.333228918249E+01
 -5.635156732684E+00 -6.344478131954E+00 -1.065776935509E-01 1.256124506720E+00 9.996435127781E-02 2.343113363002E+00 3.442587203604E+00 1.746665044022E+01
 -1.426634652559E-01 -6.498006268034E-01 -9.734492467566E-01 -5.286847887242E-01 3.647889084569E-01 3.061239726814E-01 -3.553719393952E+00 -2.361968423023E+00 2.372095451086E+01
 4.402005589267E-02 6.562656935616E-01 4.624153927665E-01 -6.069522365382E+00 -3.741098856781E+00 5.551731996825E+00 1.514216037259E-01 2.100447919546E-01 1.086464635858E+00 1.542083167912E+01
 1.385071311106E+00 5.786156072940E-01 -2.605964482924E-01 -3.806410287716E+00 -3.177436359307E+00 4.785172237045E+00 6.505732065463E-01 -2.061725772268E+00 1.857187391587E+00 2.977290576952E+00 2.783598711385E+01
 1.104007937292E+00 2.758293789618E-01 5.591331878588E-01 3.663118311490E+00 4.663528108395E+00 -3.349348352004E+00 -2.092538232301E+00 5.499820945564E-02 -1.534332065027E+00 1.225077897548E+00 -2.939721560274E+00 8.388136378032E+00
 -5.533903747459E-01 2.222463125286E+00 8.625373389183E-01 -3.894141619802E-01 8.390818700246E-01 -2.123062435179E+00 4.188764192731E-01 -2.286520392973E+00 5.340036915153E-01 3.841515208876E-01 -1.042986611270E+00 3.443876530341E-01 2.127206496455E+01
 1.229480980119E-01 8.752383565821E-01 -2.039252083520E-01 5.418871262463E-01 1.191888976505E+00 1.469018555202E+00 -9.166597363420E-02 3.826988635434E-01 -1.439928402618E+00 -8.796110493677E-01 6.581073629839E-01 -2.129879498205E+00 4.310775785574E-01 9.716371899783E+00
 -1.161364726480E-01 -1.336478353928E-01 -5.649431630818E-01 -1.076507354622E+00 -5.294843948662E-01 -1.135628106932E+00 -1.655317432649E-01 -1.019778591968E+00 -4.028811865096E-02 4.634975450014E-01 -1.046176871589E+00 1.894875656970E+00 -5.844750313344E+00 -9.012051679761E+00 1.299699260835E+01
 9.726070126897E-01 -9.907151242743E-01 -2.415971843399E+00 -1.795123390087E+00 4.156423939074E+00 2.233793521534E+00 -2.827737642797E-01 -4.293945587603E-01 1.050960663012E+00 2.964017264211E+00 1.607939591048E+00 -4.466815585062E-02 -1.231672174056E+01 -4.017445290575E+00 7.702730720478E+00 4.380802960137E+01
 -3.533198734326E-01 2.217130057019E-01 -3.173629022541E-01 7.039321743627E+00 -1.535647831883E+01 -5.944240789793E+00 1.627184901262E+00 8.512676237060E-01 -5.356543831165E-01 -2.056725844575E+00 -4.407497176750E-01 6.396628897605E-01 -4.682363859735E+00 -3.921757934378E+00 4.577961395496E+00 -3.247874510515E+00 3.886718777104E+01
 -1.318309607795E+00 1.623450930312E+00 -6.497369414125E-01 3.758739616544E+00 -2.764082277968E+00 -3.313071428770E-01 -2.746933745870E+00 1.672670358317E-01 -2.601304629290E-01 -6.369976242454E-01 -1.210736114102E+00 -1.210347593505E+00 4.396143492348E+00 3.277361199382E-01 -1.759142115352E+00 1.598839283796E+00 -1.316874495889E+01 2.773735994695E+01
 1.882152887153E+00 1.325704834667E+00 -2.188411818005E+00 -6.799650145202E-01 -2.209260443669E-01 -1.716427428968E+00 1.418348634872E+00 -9.233786982088E-01 4.797395655686E+00 3.471596292841E-01 1.001089373672E+00 -1.435913431527E+00 4.003874980356E-01 2.996542177996E+00 -1.498304844362E+00 4.301215151923E-01 -1.796795736257E+00 1.708957676538E+00 1.559419782116E+01
 7.281000285454E-02 5.758769087178E-01 1.033504031296E-01 -8.650207617431E-03 1.047742872446E+00 -1.322416414312E+00 2.436668669561E+00 -1.955955374969E+00 -3.750261713665E+00 -1.912535902912E+00 -3.780228483822E-01 2.008243707600E+00 -2.004061167410E+00 -1.491387676701E+00 1.667104190527E+00 1.759805921941E+00 5.505553804443E-01 -3.482700037021E+00 -4.322365065841E+00 2.242019636956E+01
 1.664441505140E+00 9.592996272346E-01 3.290394155837E+00 -3.353546080452E+00 1.261125276803E+00 -9.854565318569E-02 5.651639599814E+00 -9.339894877769E+00 -1.075632538516E+01 -1.724165401623E+00 2.461382326580E+00 -7.803808490856E-01 3.400451074993E+00 9.505992101321E-01 1.471572344205E+00 -2.121392315064E-01 -2.369414208521E+00 -2.588752556774E+00 5.300487616606E+00 2.552988348622E+00 2.814567025627E+01
 3.104885595297E-01 -5.162413833050E-01 7.280624146251E-01 -2.879450806816E+00 -3.042994036419E+00 -9.264407644167E-01 -4.751587430306E-01 -4.720201875169E+00 5.648398699562E+00 7.313549163921E+00 3.692793539485E-01 -5.679822498930E-01 3.296341739240E-01 9.913991513220E-01 -3.190085775684E-01 7.811901019438E-01 -5.609299670161E-01 -1.345112182215E+00 2.780682672859E-01 -8.684500352345E-01 -7.182549341610E-01 2.107259830532E+01
 -9.867717085075E-01 1.480483596705E+00 -1.106906141678E+00 2.728444110903E+00 4.751290694119E-01 -3.718816201566E-03 -1.052109194923E+00 -5.719848978938E+00 7.001226721175E+00 -2.167119604485E+00 6.418550143244E-01 -9.873037337922E-01 1.330996155489E+00 -3.187863592314E-01 -1.400741193306E-01 -2.826923295146E-01 1.250192280563E+00 2.291015888071E+00 1.488839285586E+00 -1.633945240466E+00 -9.771390888622E-01 -2.490319662175E+00 1.327496931869E+01
 -2.656511469180E-01 4.476910595462E-01 -7.495616091284E-02 -1.410485306808E-01 -1.022623326481E-01 1.084722626102E+00 3.455602550607E+00 7.275119318413E+00 -1.100970598536E+01 -4.481837304244E-01 -1.854557056468E+00 1.085374481295E+00 1.343303479113E-01 2.864382092576E-01 -5.934403399069E-01 -5.088340206953E-01 2.289717935538E-01 1.137892126043E-01 -2.887985346641E+00 1.414822855582E+00 2.547258081787E-01 -8.896079520547E+00 -1.495330738597E+00 1.165866934291E+01
 -4.669238171015E-01 -1.827611974838E-01 9.206771792042E-01 2.394790639505E+00 2.768210001661E-01 2.014299234243E+00 1.545332235375E+00 -7.219381391640E-01 -1.423752145795E+00 -7.423431802092E+00 3.981755456689E-01 -4.398759936598E+00 -2.832930598221E-01 1.993875923580E+00 -1.053443846670E+00 -9.182550401826E-01 7.317902232844E-01 -1.861739458546E+00 -1.294803416216E+00 2.919689859757E+00 1.984744848830E+00 -4.980751061337E+00 6.099276561889E+00 3.676916557664E+00 2.298488279687E+01
 -3.815848372848E-01 1.164526835554E+00 -7.296434831611E-01 -1.942100013891E+00 -1.709324711283E+00 1.435395530257E+00 2.935277029641E+00 -2.221188772526E+00 1.535310850700E+00 1.498375412700E+00 3.377225735461E+00 -2.411463751522E+00 -5.590923507305E-01 5.274604408971E-01 1.148755569523E+00 2.752602259317E+00 -1.463851182755E+00 -9.274992460190E-01 1.026185259956E+00 2.975069511878E-01 1.892925700711E+00 9.362442414640E+00 -8.363609140204E+00 -6.839972318798E+00 5.166881676041E+00 2.298321723704E+01
 7.282840263925E-01 -6.659614215005E-01 -1.874083782062E-01 4.129877687304E-01 -6.357690812015E-01 -5.840782529444E-01 8.253181680359E-01 9.406260768466E-01 1.395089660784E+00 -1.719263995143E+00 5.928560117963E-01 -2.242867681131E+00 -6.487386426226E-01 2.157500250612E+00 -2.066246389715E+00 -2.164106755647E-01 -7.000245140093E-01 -2.798313099039E-01 2.078024644433E+00 -1.859756273482E+00 4.509347395684E-02 2.151524116856E+00 -3.587958634902E+00 -3.889130865094E+00 -1.184228459510E+00 6.791358240038E+00 1.110520863757E+01
 5.418957135377E-01 -9.965003906185E-01 2.557373764242E+00 -5.305622833441E+00 -3.329138064543E+00 -2.654264935149E+00 -1.121812762249E+00 1.212580389333E+00 -1.382793793333E+00 2.053908451578E-01 2.490800894211E-02 3.785556920577E-01 -1.361987513931E+00 9.536880935286E-02 8.624372151044E-01 -1.192335222603E+01 4.007764716757E+00 -5.417734590951E+00 -2.695487025832E-01 -6.613061613159E-01 -1.640128436697E-01 1.131763398509E+00 -1.415656917787E+00 8.531700418001E-02 5.998078047882E-01 1.816817043109E-02 5.493828928851E-01 2.869145758467E+01
 -1.246171337140E-01 -7.223365947157E-01 1.485296153494E-01 -4.547766181392E+00 -3.213756413841E+00 -3.895798085438E+00 -1.172592734951E+00 -1.251238613874E+00 -9.304189552827E-02 2.389725155255E+00 8.281598557698E-01 7.211770870568E-01 -9.529609288132E-01 -6.768764203198E+00 5.988467918467E+00 5.726101114605E+00 -1.535356769520E+00 1.363905796395E+00 -9.525692530776E-01 4.177892424361E-01 -4.744884191488E-01 9.803994961239E-01 -1.021191902636E+00 -4.650701032033E-01 -1.459075565549E+00 1.981435236587E+00 -1.073895806086E+00 3.114552901537E-01 1.349303243916E+01
 1.702860829494E+00 -7.371740803338E-01 1.960416686803E+00 -3.364526405448E+00 -2.400959299312E+00 -2.504806772932E+00 -6.929899630643E-01 -1.420320412363E-01 1.890987737561E+00 -2.180911954879E+00 1.043010053775E+00 -1.271296097071E+00 1.401263008306E-01 5.211695877765E+00 -9.115144613983E+00 -6.375737714704E+00 -1.451104732160E-01 -4.709215231500E+00 2.312395810907E-01 1.098384369637E+00 5.776661952404E-02 1.291165859537E+00 6.261306163307E-02 -8.006851019494E-01 1.226837319491E+00 -2.443601134422E+00 1.955221919093E+00 6.458825577025E+00 -5.266956905838E+00 2.081661291848E+01
 -9.183484190792E+00 4.019625794166E+00 1.503399805436E-01 9.517907584515E-01 9.115821405708E-01 -2.121909494317E+00 -2.340316751949E+01 2.238567727499E+00 8.623064637391E-01 -1.823513886566E+00 -1.403726738295E+00 2.619504214123E+00 2.681925453087E+00 -4.823098501075E-01 9.227339983547E-02 -4.223870299924E+00 1.481924852682E-01 -8.193316079773E+00 -7.899727270349E+00 2.375385273319E-02 -5.400997644428E+00 -2.673442583055E+00 -1.816753420082E+00 2.878438352367E+00 5.968714377835E-01 -3.960761948425E+00 -1.222278467772E+00 -1.481051583646E+00 6.611438269565E-01 1.935077386373E-01 4.914609118892E+01
 5.463772197658E+00 -8.242417431498E+00 -2.943787694220E+00 1.652515461606E+00 5.019959030087E+00 1.102392974692E-01 -4.769225861786E+00 6.573682049826E-01 -3.277229252906E-02 1.200623235835E+00 -2.072629585675E+00 -2.693667397089E+00 -1.830855849618E+00 1.876905043950E+00 -2.806623459186E+00 8.405094457587E-01 1.226301998961E-01 9.105759661168E-01 3.550578213417E+00 -2.442092798655E+00 -3.185752191676E+00 5.065811987371E-02 2.784190134911E+00 -1.014629259582E+00 3.628912950571E-01 -2.343262522847E+00 3.459667824362E+00 -1.694177058642E-01 -1.738489478308E+00 1.907431403900E+00 -2.960076601880E+00 4.150438782648E+01
 -7.666790002089E-01 -4.182614001138E-01 -9.211574888552E-01 1.531651098699E+00 -3.732074464803E+00 -1.064298098990E+00 -5.796448871189E-01 8.229554499426E-01 2.132226850620E+00 2.687355259925E+00 -2.996272085691E-01 -3.569773618008E-01 -2.034639247184E-01 1.319558773675E-01 -1.825569554094E-01 -1.054882369118E+01 8.978260416773E-01 -9.343859749867E+00 -3.434382527985E+00 -1.389981105753E+00 -3.585289435308E+00 6.116757654271E-01 -1.719228059045E+00 -1.039890114731E+00 -6.222306810449E-01 1.895516954103E+00 3.960338553663E-01 9.547366796592E-01 9.614468521416E-01 -4.887617872676E-01 -1.577031516592E+00 -3.039927495667E+00 4.607177801890E+01
 -2.574096121593E+00 1.141283758661E+00 -2.172648373119E+00 1.559601788559E-01 2.706961032320E+00 1.276257129044E+00 -3.328186595310E+00 1.338609951264E+00 -1.893204563110E-01 -1.518556528750E+00 7.786208118606E-01 2.595582219462E-01 -1.231668350849E+00 -1.094386419877E+00 1.127885292334E+00 -6.987377850801E+00 3.213749045469E+00 2.526325295875E-01 -1.616127741745E+00 2.207498423110E+00 1.587532595394E+00 -8.892352657713E-01 -5.149657738058E-01 3.518633733718E-01 2.961304032340E-01 -1.700195561218E+00 -2.741793824556E+00 -4.776049733823E-01 1.466175198314E+00 4.017790163225E-01 3.892467386410E-01 1.509014260798E+00 3.532074623297E+00 1.687041730207E+01
 1.862986021904E+00 -3.406441217274E+00 5.361757553249E+00 3.715518028421E-01 -5.745668975643E-01 -2.045161296945E+00 -5.380637009155E-02 -9.127064950402E-01 1.828995988372E-01 1.010912782567E+00 -6.992861434594E-01 1.692654596743E+00 -1.335549716949E-01 7.766444596542E-01 -1.415960090467E+00 3.967717864579E+00 -2.954997450674E+00 8.768116426307E-01 1.251052660626E+00 -2.193624446435E+00 -1.138643780767E+00 3.427636672867E+00 2.116831786465E+00 -1.987095639339E-01 -1.215713211554E+00 -2.816509347658E+00 7.322954404784E-02 7.025002982710E-01 -3.412058568057E-01 1.639743712832E-01 2.285720640749E+00 1.260821471933E+00 -6.354022072856E+00 -1.086338388000E+01 1.810612488076E+01
 -3.561997297828E+00 5.954918554393E+00 -1.083331942442E+01 2.326636165984E+00 2.683181088507E+00 1.877991348752E+00 3.867957952320E+00 9.579513627732E-01 -2.702252872442E+00 -1.355213969020E+00 -2.760817749674E-01 1.588614547161E+00 1.098877493660E+00 1.041312963726E+00 -2.068032014983E+00 3.636759115153E+00 -1.287301903873E+00 8.367059842430E-01 3.549217759500E+00 -1.166061421937E+00 -1.674309666300E+00 -2.073886714742E+00 6.309865997040E-01 2.737255390141E+00 1.391741938469E-01 -2.733807631416E+00 5.373695366035E-01 -1.986772337579E+00 -6.846986075470E-01 -2.058462277980E+00 2.655263031935E+00 -2.846186755718E+00 -1.565587943640E+01 -7.953948842236E+00 9.475842572858E+00 3.636727018510E+01
 -4.325257285978E+00 1.125680752901E+00 7.380899810737E+00 6.675618539261E-01 1.208585183936E+00 -7.357637572196E-01 -7.681415848340E-01 2.480405410203E+00 -2.078365634266E+00 -3.396251403803E+00 -5.380834772617E-01 -4.851092461720E-01 4.091905725870E-01 -1.036400923590E+00 4.265795222269E-01 -1.184347184071E+00 -1.280786836675E-01 2.816883190845E+00 -3.005735605389E+00 -6.249894339966E+00 8.299664796363E-01 -3.884829067708E-01 -7.074676624434E-01 9.307298828282E-01 1.821571045401E+00 -6.142557323295E-01 3.115377596341E-01 4.657631970294E-01 3.165270669845E-01 -2.485219158698E-01 2.160094979937E+00 -2.184082120683E+00 -1.639812053416E+00 2.866940836727E-01 -1.055133365634E+00 -1.531361551059E+00 2.920507142199E+01
 2.840925773651E+00 -1.953990563109E+00 -3.885676835910E+00 -2.655716178462E-01 -1.779063288288E+00 3.241788662007E-01 1.127980041274E+00 -1.624622265124E+00 -3.696659922574E-01 1.765000725033E+00 6.587084484571E-01 -6.417085234397E-01 2.361103846749E+00 -8.912141960560E-02 2.002847204308E-01 -7.197843964025E-01 1.563912288582E-01 -2.680524773375E-01 -3.670395230827E+00 -1.357795953166E+01 -5.139143342485E-01 2.701377563001E+00 -8.308828337681E-02 -1.257216938572E+00 -1.199086024978E+00 3.390912297788E+00 6.289530762125E-01 -4.433510754532E-01 3.017147424504E-01 -2.413675163048E+00 1.609786532198E+00 -5.169670650229E+00 1.017776282821E+01 -1.956291187534E+00 6.783843943964E-01 -6.854558351572E-01 -5.563051524607E+00 2.501513081345E+01
 6.295449006698E+00 -3.959139614734E+00 -1.048664250350E+01 1.846318738528E+00 9.915945595773E-01 -5.206574705125E-01 -4.976734493461E-01 -5.966456283204E-01 3.145887360106E+00 -1.137917688237E+00 8.362176280021E-01 -2.406534044601E+00 5.639894990408E-01 -6.790374465951E-02 -1.502380304160E+00 -2.756886214630E+00 -1.508673198498E-01 8.043781701368E-01 4.149950902817E+00 -2.609241043312E+00 -3.249580810159E+00 1.329183819252E+00 1.747126643628E+00 -1.779507904745E+00 -7.068112169247E-01 -6.319960495473E-01 3.181531871607E+00 1.942475497894E+00 -1.383508299267E+00 1.886002270693E+00 -5.245567484434E+00 1.192516028588E+01 -1.405821041053E+01 -1.705544105846E+00 2.216960187836E+00 6.841439689915E-01 -7.598385447496E-01 -4.559499916185E+00 3.208338334107E+01
 -1.845697208935E+00 -3.421125655951E-01 2.988035962091E-02 -1.737179029152E+00 5.227937116865E-01 1.094087415013E+00 -1.703024603108E+00 1.585719094494E+00 -4.684497576805E-01 -4.113483768212E+00 -5.143215268300E+00 -2.295075121251E+00 -6.750253876656E-01 -1.231896544202E+00 8.593322843914E-01 -6.573115257255E-01 -1.914942733362E+00 2.594922339460E+00 -4.376820295756E-01 5.541608412628E-01 -1.349039612856E+00 -6.532982287534E-01 4.393241567270E-01 -2.092404742919E-01 -1.325010210105E+00 -2.265541034325E+00 -6.582627605889E-01 -9.444216701755E+00 -2.291857364909E+00 3.694463521865E+00 1.324324713416E+00 2.889068026774E-01 -4.926519488283E-01 6.462231725138E-01 -1.919271166336E+00 1.122420320771E+00 1.223723615314E+00 -8.551790109867E-01 1.566288830614E-01 2.158609111552E+01
 -1.720703726283E+00 -3.986021892048E-01 -4.524943307310E-01 -1.334915958828E+00 -1.426556536397E+00 -3.310479688381E-01 -1.822115565546E+00 2.399203492108E+00 -1.473451696478E+00 -6.216334182566E+00 -1.101845803603E+01 -3.125297560141E+00 -4.788853672429E-01 3.659891858149E-02 1.615626084904E+00 -3.204060706762E+00 -6.287697092814E+00 7.625977635182E+00 -1.829376366332E+00 2.695934689323E+00 -1.456841339409E+00 -2.851754557139E+00 -1.304595043111E+00 2.272815191291E+00 7.468326098123E-01 -2.018658091439E+00 -1.804661948302E+00 -1.544062208247E+00 -2.998702688574E+00 -1.970011707842E-01 5.657353426350E+00 -2.353684512929E+00 1.853304351583E-01 -3.087947865357E+00 2.716126802396E+00 -5.047939168206E-01 1.577550779811E+00 -1.638195406990E+00 -1.676704642160E+00 1.221117972461E+01 2.190149405851E+01
 -1.193677819184E+00 -1.996030945304E+00 -1.386362926245E+00 3.814212799176E-01 -3.340671699319E+00 -3.468255167106E+00 -3.432844844330E+00 1.527282248093E+00 -5.256597272297E+00 -2.823450497553E+00 -5.973989878639E+00 -2.263523274476E+00 -5.157476713122E-01 4.532437112236E-01 1.081587039593E+00 5.866638626669E+00 9.815692770052E+00 -5.503126802282E+00 -2.629372901884E+00 2.981067759449E+00 -1.185034726897E+00 -2.012060467954E-02 -2.618749966647E+00 3.327377899752E-01 -6.714572806827E-02 1.927424341130E-01 -1.193903492644E+00 3.651472551781E+00 2.784153683098E+00 -4.649417392881E+00 3.335924518752E+00 -1.302784885385E+00 9.112914478598E-01 2.217605387827E+00 -2.246100551136E+00 3.002352687198E+00 -1.163372836593E-01 -2.630582328309E-01 -1.132818429703E+00 1.753325532884E+00 3.344548248667E-03 2.711398171328E+01
 2.329243118505E-01 -1.779748354729E+00 -1.069396036337E+00 -1.721160115330E+00 2.146161847864E-01 2.124034280530E+00 -1.454677955360E+00 3.325231059418E+00 -9.303912084592E-01 2.710909621485E+00 -5.064185901734E-01 -6.946592850167E-01 5.132855031709E-01 8.731135787679E-02 9.180704531410E-01 7.108613850356E-01 -9.995621528881E-01 -5.794010870637E-01 -1.405062650276E+00 4.654575205693E+00 -1.424230595925E+00 1.219322806583E+00 -9.073402212400E-01 -6.410117851056E-03 -1.645699148215E+00 -2.223941782796E+00 1.120168602101E+00 -2.292647142896E-01 -2.952465218226E-01 -9.926004691859E-02 -1.004888672605E+01 4.185167313943E+00 8.962113371619E+00 2.034267331030E+00 2.429394854084E+00 9.982016215552E-01 -8.466314313113E+00 1.455443125588E+00 -3.666270934303E-01 4.968265934196E-02 2.626651994835E-01 1.646615230458E+00 2.833801172513E+01
 7.636179629516E-01 -5.896597557203E-01 1.587264628151E+00 -1.935640524075E+00 -1.684095877196E+00 -3.759766290298E+00 9.038529198088E-01 1.635083409110E+00 -6.437642228773E-01 -5.482199854554E-02 6.605660733269E-01 1.938922964902E+00 -1.255834473929E-01 1.726639824117E+00 -1.636156131979E-01 1.524588537452E+00 -1.940974786764E+00 1.316795081191E+00 8.996410363967E-01 -2.987096628083E+00 1.718018340765E+00 -8.311206462250E-01 -1.222140881577E+00 1.496413454894E+00 4.391064696682E-01 1.364538955669E+00 -1.749343255456E+00 -2.151389343766E-01 6.899590733289E-01 3.885584412394E-01 3.133206703350E+00 -1.696544916185E+00 -4.961010774807E+00 -1.833252101578E+00 -2.110407967353E-02 -4.877688085796E-01 5.676438536679E+00 -2.339791756007E+00 -8.442633036575E-01 -7.580582126436E-01 8.945591808657E-01 4.416805947272E-01 -4.813867098233E+00 1.183311893449E+01
 3.830469476796E-01 5.850325850443E-01 1.622181910693E+00 7.380515745615E-01 4.967279982156E-01 -1.108092547574E+00 2.669015556106E+00 -1.572676699885E+00 1.219394821992E+00 4.640146431680E-01 1.610518825221E+00 2.304161843092E-01 -2.449145165905E-01 -6.346331514808E-02 3.211234180634E-01 -1.395165450700E+00 -7.802639485872E-01 -6.490204991356E-01 2.717543294834E+00 9.839227667188E-01 -2.654300239453E-01 1.339250153255E-01 -1.545333953827E-02 -4.780438708180E-01 2.205436335970E-01 1.924469967801E+00 -6.297639511527E-01 -4.552075394803E-01 2.889111412582E-01 -1.889812605937E+00 8.334618805031E+00 -7.782829312003E-01 -5.593145644233E+00 -1.132170477986E+00 -7.208708023741E-01 -8.839255173550E-01 -1.209839533888E+00 9.332395983059E-02 -2.888146311598E+00 -1.851148396913E+00 -9.124903627978E-01 -2.100340422830E+00 -1.547126142888E+01 -4.844881491151E-01 1.591977773260E+01
 -5.428396817808E+00 -7.294276798237E-01 -5.467710283312E+00 8.260933669381E-01 -9.627697609713E-01 3.704089940258E-01 -1.409005761283E+00 -9.079428462069E-01 -1.494032774915E+00 5.535077613447E-01 -1.194421656601E+00 5.949525429524E-01 -3.688250725573E-01 3.568583326028E-01 8.709670941182E-01 -1.934832268451E-01 7.462151130703E-01 -2.813748925380E+00 -1.168445466548E+00 1.453422900592E-01 -1.076364897208E-01 -1.124583308628E+00 3.743869641546E-01 2.840413139390E-01 3.623127698773E-01 1.088455252757E+00 -1.171543700494E+00 -2.988835055401E-01 -5.351516268928E-01 -2.239624696043E-01 3.004674193081E+00 2.719960190553E-01 2.241345482811E+00 -3.653480086979E-01 -1.421139204877E-01 3.594688377145E-01 -1.633165073543E+01 2.478792887405E+00 -3.413282950939E+00 9.574380273308E-01 1.511921642160E-01 1.147175975829E+00 3.207734563601E-01 1.028577536655E-01 -1.341414499654E-01 2.127821956759E+01
 1.490957090758E+00 -3.469607689322E+00 -1.669259056466E-01 -9.492056925369E-01 -8.422637701142E-02 -3.484863564556E-01 -8.136983160577E-01 -8.739972981996E-01 -4.795940200845E-01 7.620959649846E-01 -4.011690094865E-01 3.183591307175E-01 6.143588709210E-02 -8.193183038665E-01 4.416778854012E-02 -1.543904460646E-01 -7.145363111723E-02 -7.285533445955E-02 -8.572993305577E-01 1.912848782299E+00 6.448686578210E-01 8.554095291937E-01 -4.067742822595E-01 -3.229130535061E-01 -7.908747183496E-01 -9.860212133866E-01 -2.217544810868E-01 -2.657308597885E-02 1.503427042461E+00 3.453340677609E-01 -1.056847063853E+00 3.009544562802E+00 -7.494388081196E-02 4.669216375161E-01 9.237970830808E-01 3.217957082422E-01 1.807959362014E+00 -2.727488130769E+00 -4.884911827647E-01 -1.864859937042E+00 -5.364195462610E-01 -1.020552326957E+00 6.264449373139E-01 -7.181706789468E-01 -3.433771053997E-01 -1.016945587010E+00 2.757090752735E+00
 -6.473461274776E+00 -5.643592140346E-01 -1.007708437115E+01 2.351957645514E+00 -2.137878995596E-01 -4.133645749220E-01 -1.041933156856E+00 6.223990836941E-01 -2.479325937668E+00 -8.520632109160E-01 -1.607382464277E+00 -1.883126217067E-01 -2.056050259550E+00 9.843335746201E-01 1.694580919766E+00 1.756078193867E+00 7.145707572577E-01 3.530313799059E-01 6.442708654117E-01 -9.476784742974E-01 -2.229252128392E+00 -1.426224918174E+00 6.197915252829E-01 4.725499571510E-02 9.092746460346E-02 4.083103857743E-01 4.973506749614E-01 -1.498021363885E+00 -1.382023404686E-01 -1.533183795176E+00 -4.102373577543E-01 7.151693935996E-01 2.513015890220E+00 3.308486001437E-02 -1.956126634845E+00 -2.847983004192E-01 -1.444584418627E+00 -1.647110496759E-01 -1.177887248360E+00 1.316060853123E+00 1.502011030147E+00 1.835302986458E+00 2.565176379876E-01 7.644654400419E-01 3.673327849002E-01 7.499209520573E+00 6.061624225165E-01 1.238165949158E+01
 2.692018313355E-01 3.973018568928E-01 2.103567473675E+00 -1.134965957224E+01 -3.330451249718E+00 -8.805927089099E+00 3.128549303384E+00 -1.424910468446E+00 9.042338623223E-01 1.448160402867E+00 -1.115768663715E+00 1.322268435280E-01 2.513080819197E+00 -1.421388599996E+00 -8.163065128382E-01 -3.308092377063E+00 1.285727143350E+00 9.725510825874E-01 -4.030883346337E+00 8.572774654321E-01 -5.391445353568E+00 3.226013928627E+00 -5.423935793741E-01 -9.873096131811E-01 -1.010998067710E+01 -4.215154998949E+00 5.501416106771E+00 7.821925393928E-02 9.053168847228E-01 -1.575633019590E+00 2.412641649849E-01 1.703851173060E+00 -4.150456842368E-01 -1.749743681913E+00 -6.826062900188E-01 -2.104770362079E+00 -1.365022223976E+00 1.891960624405E+00 1.996633742147E+00 -4.487307443500E-01 -1.789290441629E+00 -3.068524685410E+00 -4.593053579339E+00 -6.034914028655E+00 4.370163483624E+00 -9.740507102476E-01 1.104842147221E+00 -2.605087055738E+00 3.245020564201E+01
 3.562568651629E-01 4.276453314304E-01 5.355584323101E-01 -2.080443213206E+00 -7.632400652820E-02 -6.586740159652E-01 -1.546264863574E+00 3.330877812022E-01 -1.845692481361E+00 -3.527859711551E+00 7.367883303553E-01 3.804384028432E-01 1.497255173407E+00 -4.645286129518E-01 7.413074343350E-02 4.090254690820E-01 2.232501406001E+00 2.517074643595E-01 4.133729409939E+00 -3.030932430754E+00 5.375456602385E+00 -2.971025206750E+00 -2.257926585612E+00 1.674821585172E+00 -5.247002772044E+00 -4.655065750965E+00 1.801205568880E+00 -1.291456074099E+00 -1.346338951150E-01 -5.585419901739E-01 2.536243331076E+00 -1.568648977908E+01 -2.327283990714E+00 2.143421438559E+00 8.119606297471E-01 1.757500949113E+00 1.226603450343E+00 1.393403941835E-01 -1.445861639166E+00 1.548848266466E+00 9.756408896875E-01 2.670876387466E-02 -8.548345588322E+00 -5.302728999868E+00 3.965585207112E+00 -6.362589757336E-02 3.132405581710E-01 5.013408352898E-01 8.611359630418E+00 2.739556761514E+01
 1.818729235715E+00 -1.267341633670E+00 7.118477944331E-01 -7.450751610485E+00 3.050341126905E-01 -7.762352826198E+00 1.403485411389E+00 5.789570528574E-01 1.398897099761E+00 -7.361290109286E-01 -2.681324999595E+00 5.459458338595E+00 3.260522604644E-02 -1.160220467178E+00 9.314793781837E-01 2.539540976989E+00 2.394770573117E+00 -2.186140293622E+00 -8.137073801409E+00 6.154253207286E+00 -9.299871748418E+00 6.224892590852E-01 -1.343569673655E+00 1.295092614808E+00 3.739193387518E+00 4.088613507419E+00 -5.030336134842E+00 -2.588636131982E+00 7.765987686598E-01 -3.904288260941E-01 1.182347272080E+00 -7.690317792357E+00 2.355437634831E-01 1.889528292232E+00 5.552027010842E-01 -1.271241616709E+00 -1.720802289825E+00 1.284613169548E+00 -2.612892852638E+00 8.815034419661E-01 5.916529554027E-01 3.553021891108E+00 8.015882340579E-01 3.597810417204E+00 -1.247037416596E+00 1.387545466382E+00 -4.053705830173E-01 -2.746649578015E-01 4.342848790649E+00 -2.571960580039E+00 2.676613964719E+01
 -9.630162431980E+00 1.457575906546E+00 -3.890559318383E+00 7.787592989053E-01 -2.319606931614E+00 3.166884260565E+00 -1.391280454838E+00 1.940397073931E+00 -2.296767329292E+00 1.722780753975E+00 1.569598721465E-02 -1.274102913528E+00 -9.031852624034E+00 4.054828240347E+00 -2.365372931148E+00 -9.347364552328E-01 -8.454642616331E-01 2.227737473862E+00 2.759813600413E+00 -2.068483341095E+00 -2.113947807516E+00 5.527544312297E-01 6.685034015564E-01 -4.897741245768E-01 5.309791460405E-02 2.475817767297E+00 6.056753560528E-01 1.451395226794E+00 8.182013572618E-01 -1.807835945639E+00 -2.716956350058E+00 -2.972857333323E+00 2.880317250786E-01 -1.724234886829E+00 -5.696508851311E-01 7.733688871003E-01 5.136642168003E-01 9.782961915614E-01 9.520352343788E-01 9.445416096195E-01 -6.716276298723E-02 1.036797322276E+00 -3.380599636683E+00 5.196669832685E-01 1.145466005984E+00 5.569727548234E-01 -1.796243843141E+00 3.443124576214E+00 -6.571621333119E-01 -2.846478462063E+00 -3.865841819515E+00 2.282133141953E+01
 -1.397056792456E+00 -9.582686747460E-01 -6.884975903558E-01 3.242145469760E-01 -3.161253664815E-01 1.746918792147E+00 -1.296728214611E+00 3.002347642616E-02 8.506790479811E-01 -5.560555368209E-01 -4.047774403605E+00 2.116155949045E-01 2.963945040877E+00 -4.745604246356E+00 2.078819973107E+00 -2.779742971272E+00 -6.032944138342E+00 6.020652728883E+00 -3.494832590996E+00 2.921590741172E+00 -1.511515292259E-01 -1.692237134539E+00 2.103596919332E+00 -3.612734959324E-01 2.077252978302E-01 -2.045823874493E+00 -1.604716905672E+00 1.889801931156E+00 5.181835930609E-03 1.210115745694E+00 -6.372456214382E+00 -1.109175190723E+01 1.499525913520E+00 1.792147337947E+00 -4.861012231023E+00 -4.238472864474E+00 1.135770937948E+00 -4.957218963818E-01 5.787290198142E-01 2.840092318065E+00 2.082884326995E+00 1.835924736665E+00 1.288785325260E+00 -6.792731300323E-01 -3.589425444310E+00 1.336583522105E+00 -5.097724206873E-01 2.728411666955E-01 -9.832420522735E-01 -1.548807443390E+00 -1.401339295900E+00 3.535910981483E+00 2.989393018477E+01
 -2.978721528823E+00 1.656469858498E-02 -1.095303591846E+00 -5.433460203193E-01 -4.879956008633E-02 2.011348125460E+00 -2.093601357137E+00 1.336820592140E+00 1.023126706561E+00 6.422626507326E-01 1.028033325745E-01 1.312901480284E+00 -1.565936219469E+00 4.858898735881E-01 -6.140596571176E-01 1.167280771520E+00 4.803864049911E+00 -3.470005953270E+00 -3.168439748753E+00 1.520912561628E+00 -1.055351542546E+00 -5.440311391099E-01 2.468468187563E-01 9.859520091045E-01 -7.480638505368E-01 -1.682621744247E+00 -1.917620550754E+00 3.727488320091E-02 1.859831207379E-01 9.273713829734E-01 5.248575642395E+00 -1.867408256568E+00 4.238282659635E-01 1.112317561242E+00 -2.973286653730E-01 -1.210645545626E+00 -4.063997792874E-01 1.499903468258E-01 -1.341442271438E+00 6.879898460742E-01 1.166057836481E+00 -1.475000888844E-01 8.591427141465E-01 7.926463057867E-01 -2.576389964228E+00 -2.612534557095E-01 -1.650894640611E-01 -1.222312863278E+00 -6.348318915817E-01 4.971157964275E-01 3.173129224380E+00 2.209998667160E+00 -6.315509494129E+00 7.782348808910E+00