#BIOSYM hessian 1
@Type: Hessian Update
@Units
 distance: 	A
 energy: 	Kcal/Mol
#header
@natom 19

#label
L1      L2      L3      L4      L5      L6      L7      L8      L9      L10     L11     L12     L13     L14     L15     L16     L17     L18     L19

#element
Li Li Li Li Li Li Li Li Li Li Li Li Li Li Li Li Li Li Li

#matrix
57
 1.209871708082E+04
 -3.417203898291E+02 1.617961242395E+04
 -2.297893417961E+02 -2.860138821416E+02 1.366411952642E+04
 -1.276535448753E+02 4.288464552388E+02 -3.977636397816E+02 1.286140173493E+04
 -3.227334524763E+02 -1.550849145808E+02 6.209989252176E+02 -1.022310035754E+03 1.238904003230E+04
 -2.311598290924E+01 7.983934652743E+01 -9.054587049869E+01 -4.035365889306E+01 5.441533988865E+02 1.076958940365E+04
 -7.303531283789E+01 1.659333405375E+02 4.482054366986E+00 -1.494181727189E+02 -1.974693426852E+02 -1.141141757616E+02 1.707830277966E+04
 2.787560379973E+01 -6.382156494214E+02 7.225173157513E+02 5.300348060235E+02 -3.888729753809E+02 1.014918237018E+02 -1.128725875256E+03 1.544217691888E+04
 1.555955506867E+01 -5.539841273079E+02 -6.118691995981E+02 8.557070583350E+01 -2.989555560672E+02 -1.388755405419E+01 -4.219882915662E+02 -1.862664249965E+03 1.700945229364E+04
 -5.899683363324E+00 1.677169798989E+02 -1.068589659648E+01 -3.054882734040E+02 9.360926729650E+01 4.547400137392E+01 4.211486870548E+01 -1.728659539739E+01 -2.421143464225E+00 1.325915339204E+04
 -3.814948103094E+01 1.774495691688E+02 -8.675667594492E+02 -4.210089358688E+02 2.921401422866E+01 -1.481893128166E+01 3.585694858802E+02 6.377093489870E+02 2.008199606113E+02 -1.216157154906E+03 1.378478371284E+04
 -2.545724346339E+01 -6.278228962774E+01 -5.915233408840E+01 -1.343193398640E+02 1.350986220883E+02 -9.928889147485E+00 -3.184007601082E+02 3.145405339399E+02 1.241473681192E+02 2.054888226753E+03 3.279308215406E+02 1.580535842585E+04
 3.462982244981E+01 2.085763387468E+02 -8.803611944757E+01 -1.852394655594E+02 -2.057722439309E+02 -1.384005400877E+02 -1.822449036465E+02 8.614287711742E+01 2.089760073930E+02 -2.249179177821E+02 -7.624497848458E+02 -9.879106319142E+02 1.244612098171E+04
 5.260672013175E+01 -1.654855611594E+02 -1.656487154076E+02 -7.783137552534E+00 2.027742127200E+02 4.172735893356E+02 -7.133072676415E+01 -5.525441146610E+02 4.751548236353E+02 -2.756987507836E+02 -2.137897003757E+03 -2.854119399954E+03 -7.418406712765E+02 1.401914172306E+04
 -4.312537579235E-01 -9.182792539971E+02 6.269891623038E+02 5.376358597787E+02 -3.487686807619E+02 -2.219960995241E+02 1.512621439856E+02 -7.537148178722E+02 -4.104399490597E+02 -8.301767679781E+02 -1.426224623183E+03 -5.519765021902E+03 -1.012488627849E+03 9.629166482335E+02 1.547276502490E+04
 -1.448789419012E+02 1.943193643318E+02 -2.016059272434E+02 -3.850238649588E+03 -2.622597376101E+03 -2.251467847667E+03 -4.600550117163E+03 2.542063384428E+01 -7.858190004774E+02 -1.128704629100E+02 -4.773174916812E+02 2.108443570258E+02 -7.547364576567E+01 -1.342757038019E+02 2.945039506396E+02 1.518995084187E+04
 -1.173803558270E+02 -5.664803528409E+02 4.675497041196E+02 -1.686002978503E+03 -2.546758769763E+03 -1.503549871391E+03 -4.030024598578E+02 -1.003863113682E+03 -5.240885060225E+02 -6.058747730317E+01 3.521574557457E+02 2.461150043829E+02 2.947663929209E+02 -7.003891286809E+02 -5.394250577170E+02 1.244094305677E+03 1.577246811407E+04
 3.141537188644E+02 -5.806522537803E+02 -3.796768205506E+02 -1.494865388619E+03 -1.996937934232E+03 -1.477479553728E+03 -9.833197592674E+02 -5.074223663819E+02 -3.849300966935E+02 3.379111400594E+01 3.174395656274E+02 3.015757316350E+01 -1.000199615069E+02 5.692311557358E+02 -5.471169829785E+02 3.886979207391E+02 -1.126721183899E+03 1.761808328747E+04
 -7.444368414932E+01 -5.381015053984E+02 5.057738283864E+02 -1.214267064144E+03 4.285419641605E+02 3.838941023763E+01 -2.551779071212E+02 -1.345361371325E+03 -7.468455499668E+02 -5.105137303195E+02 -1.578445124274E+03 4.097941340858E+01 -9.558207482014E+01 -2.609129477977E+02 4.351359958866E+02 -2.100293224306E+03 2.375966062176E+03 1.114518926319E+03 2.197188987196E+04
 -2.677494970721E+02 -9.024504393593E+02 1.998370371666E+03 4.040758052963E+02 -3.814732456067E+02 -2.583554516064E+02 -1.902785022165E+03 -3.599007208341E+03 -2.266287751892E+03 -1.258563062220E+03 -4.849195139805E+03 -2.434382662247E+02 -5.317617993290E+02 -3.121625906116E+02 2.709007369787E+03 3.205966756492E+03 -2.449370683790E+03 -1.239368883316E+03 -8.901452645031E+02 2.953776598252E+04
 3.470620455158E+02 3.171433946151E+03 -3.677836258504E+03 -2.081772524587E+02 -7.118359184005E+01 -1.336235963050E+02 -7.080443629027E+02 -2.084801460203E+03 -1.442613751897E+03 7.477584657588E+00 -1.579673987706E+02 -2.987707140352E+01 6.275781776621E+02 1.274883671872E+03 -3.720745769307E+03 1.169946632471E+03 -1.075386732011E+03 -5.907292802542E+02 -1.925502958850E+03 -2.833580683237E+02 3.031457593708E+04
 -3.138076365025E+02 9.471123437478E+02 1.275461622300E+03 -3.962755184717E+02 -4.777770664987E+02 -3.340059470734E+02 -9.265370531125E+02 1.032568509842E+03 -2.469173591205E+03 2.546105961909E+01 -1.321518679047E+01 -9.614004414801E+01 -3.474241421882E+01 -2.537406916803E+01 1.143258416246E+02 -2.563652974195E+03 -1.665412603867E+03 2.864550461262E+03 -2.608382775567E+01 3.361808158813E+02 -1.191890605722E+02 1.099129466110E+04
 7.584094466172E+02 -2.961545757023E+03 -1.963467504419E+03 6.661501747121E+02 -1.045238282149E+03 5.856399071023E+01 5.175927513414E+02 -1.949270543154E+03 2.130301186795E+03 8.772196294740E+01 1.450092903316E+03 -2.660251245250E+02 2.493745813284E+02 4.258048315884E+02 -1.528329644043E+03 -1.126844309026E+03 -2.279432328985E+03 2.010758201329E+03 2.891898117350E+02 -5.429634799431E+03 1.391137460855E+03 -6.780260213762E+02 1.517857610387E+04
 1.330914659993E+03 -3.454446774674E+03 -4.827115019324E+03 1.687705938807E+02 -3.439323106991E+02 1.681969829913E+02 -2.554961326553E+03 1.860982767813E+03 -4.909900050764E+03 3.716487875733E+01 1.106878348760E+02 -5.714879070565E+00 3.831558516457E+01 4.621898071660E+02 -2.237702118526E+02 2.974262698357E+03 1.585103075299E+03 -2.789326383965E+03 -5.714060103541E+01 3.320917558741E+02 -1.017698176145E+02 -1.270868199673E+03 6.793733886366E+02 1.613779093121E+04
 -2.176856093679E+02 -1.089096895316E+02 6.286866068420E+02 6.332029908831E+02 -4.794285933314E+02 2.133000241878E+01 -4.040857825326E+02 -2.028563570757E+02 -5.296126266743E+01 -2.425269593282E+02 9.943095907220E+02 2.131373852525E+02 -8.680602479091E+01 3.295316370096E+02 -3.322340953328E+02 5.635239908466E+02 -3.769919945378E+02 -2.342840559388E+02 -2.122534860784E+03 1.999369217341E+02 2.658073581631E+02 -8.593900938378E+01 -1.151077422440E+03 -2.211582735028E+02 1.189775531776E+04
 4.725111449148E+02 -8.321486456638E+01 -3.409073374014E+02 -5.434594569231E+02 2.024969483138E+02 2.169592977702E+00 2.514548030631E+02 -7.508076176006E+01 -2.716384812890E+02 -2.500525399755E+02 -6.565810802473E+02 2.706864478229E+02 3.741237576627E+02 -1.461542722420E+02 7.104786624246E+02 -2.643757374074E+02 6.110133131025E+02 2.234574810757E+02 7.992618762931E+02 -2.361769606568E+02 -9.999957808006E+01 -1.108231791876E+02 5.197579134577E+02 1.601108931947E+02 -8.667008521709E+01 1.512279264106E+04
 1.607248862186E+02 7.685104819796E+02 -4.642659231414E+02 -6.533506736632E+02 3.186463530489E+02 -1.460998791099E+02 6.821423370074E+01 3.065661588177E+02 -1.027081215528E+01 -5.228326637165E+01 -6.415067513554E+02 -1.935664446503E+01 7.931596601770E+01 -3.495860756646E+02 1.634530202636E+02 -3.551029374369E+02 6.109756887928E+02 2.227740109666E+02 3.944460683096E+02 -2.722464625480E+02 -8.986125221634E+00 1.649579556605E+02 6.953909738195E+02 5.543182638402E+01 -5.240752361463E+00 1.672965042596E+03 1.386225744004E+04
 1.194236797928E+02 -6.693034452793E+01 -2.488222211306E+02 -1.897264429919E+03 3.558627550149E+03 1.116589868743E+03 9.273279976265E+01 2.830525954070E+02 4.283368960035E+01 -4.062032527797E+03 1.513134736926E+03 -2.458613533334E+03 3.879279642628E+01 -2.033118229879E+02 2.984180293969E+02 -4.773972706624E+02 3.384139740879E+01 -5.568439246226E+01 -1.356509977111E+03 -5.569596666816E+02 -7.050203503622E+02 -2.452688487374E+01 7.450975040298E+02 5.875084258120E+01 2.741747497962E+02 -5.812740815546E+02 -3.962725627134E+02 1.266154506235E+04
 -2.270258229501E+02 -4.325586951415E+01 -7.813349228895E+02 1.538739410823E+03 -5.488937389201E+03 -2.319087421742E+03 1.303388966853E+02 8.872392697106E+02 5.542830419495E+02 2.110008172963E+03 -2.161941066703E+03 1.376407128307E+03 -5.475176069402E+02 -3.542584634726E+02 7.762618947279E+02 -4.689451493082E+02 -6.592726202535E+01 2.249897164104E+02 -1.137722625505E+03 -6.138028045106E+02 -6.053475039464E+02 -4.978392157601E+01 1.133965627535E+03 4.940133102285E+02 1.098288670132E+03 -6.984900394498E+02 -5.330236496933E+02 -1.698377157027E+03 1.546731497265E+04
 -3.302025943733E+02 3.952336085382E+02 -2.774549576629E+02 8.412277643541E+02 -2.174949642191E+03 -8.405252513212E+02 -2.038886895060E+01 2.026706896542E+02 6.181353684572E+01 -2.547687977973E+03 1.187088736757E+03 -1.532653589146E+03 -1.113934574033E+02 -3.952452980145E+02 -4.574998380199E+02 -3.756591923114E+01 -2.009356885049E+02 -1.193522423452E+02 -6.177585363957E+02 -3.627231068586E+02 -2.504974248736E+02 -2.798851154009E+02 1.746958289940E+02 -5.403557996466E+00 4.119126436669E+02 -1.455133596316E+02 -3.087726584963E+02 -6.601096821317E+02 1.035402607400E+03 1.319202090037E+04
 -1.565478513250E+03 2.398330675576E+03 -3.113922901294E+02 2.668652001987E+02 -3.213189935370E-01 1.215907797008E+02 -4.197146854664E+01 -2.879862132408E+02 -3.686404134640E+01 -5.562143323257E+02 -1.994924597029E+02 5.438512693222E+02 1.284760888251E+01 3.825642405222E+01 -3.133621857610E+02 1.806961279238E+02 -1.960676268871E+02 -9.829719786026E+01 -2.025367015456E+03 1.180228990133E+03 2.310101611340E+03 -6.079867415440E+01 -3.042518566870E+02 9.175327483818E+00 -3.310029189599E+03 -1.380689878716E+02 -3.124667184915E+03 -5.828639970721E+01 3.668469756183E+02 1.626247867371E+02 1.359357127103E+04
 3.042185437628E+03 -5.079058002736E+03 4.798041105235E+02 -4.105314093940E+02 1.021267615218E+02 -5.031316805429E+01 -7.944175556499E+01 3.194094568449E+02 1.073321109629E+02 -4.044128082840E+02 -8.377145482677E+02 6.639729457914E+02 1.453253261761E+02 -3.814471451092E+02 2.169746503846E+02 -1.670712549054E+02 4.046544205520E+02 2.450896463986E+02 1.340704260136E+03 -8.988557327804E+02 -1.659907207654E+03 -2.237126608622E+01 1.728071915769E+02 1.309408410955E+02 2.485041451736E+01 -1.940296287993E+02 -6.339157544248E+02 -6.052304689809E+02 -4.207454528751E+02 -3.889915505723E+00 -1.543849284952E+03 1.462886901884E+04
 -5.830913773823E+02 1.755047078800E+03 -1.224211762762E+03 -4.964969445214E+02 5.027852603047E+02 6.298727084449E+00 3.262599106607E+02 1.837159718522E+02 -1.090271182685E+02 6.526514976808E+02 -3.758400671336E+02 -6.364152151146E+02 -5.475829985456E+00 -2.845384880695E+02 3.796235833804E+02 -4.772365554951E+02 2.769223323977E+02 2.236846636626E+02 2.488299353274E+03 -1.163265304494E+03 -2.982174493068E+03 2.628161235124E+02 7.695812924260E+02 -2.116438921337E+02 -2.668622930236E+03 -6.577609188578E+02 -4.035916614818E+03 -1.980814470486E+02 -9.613090880326E+02 -2.621429182710E+02 2.150372703738E+03 -4.561312116547E+02 1.505046806907E+04
 -6.975826665937E+02 -1.859112384088E+03 3.459011768010E+02 -7.015437337183E+01 1.381834776967E+01 3.498470855329E+02 -1.167562192781E+02 -1.540973355674E+02 -1.454275450235E+02 -1.949256516517E+02 -1.461761964405E+01 4.826658078799E+02 2.634604350607E+01 2.132025023618E+02 -1.017693307452E+02 1.751573886866E+02 -1.559656819846E+02 -7.237425504963E+01 -2.259768495463E+02 -3.549755621233E+02 -6.561631507252E+02 -5.408627674712E+00 -3.624860376783E+02 1.274267908916E+01 -3.963435695137E+02 1.200943568191E+02 -3.621353741062E+02 -4.209038258478E+03 -7.672140492749E+02 3.092400971249E+03 -5.170526844639E+03 -1.602461141584E+02 -1.082155427364E+03 1.296806338681E+04
 -1.998885405237E+03 -6.087171053982E+03 -7.574266361464E+02 -1.401855966341E+02 5.894786914821E+00 -2.747477735561E+02 -4.978216080035E+01 4.620228784399E+02 1.754752469619E+02 -4.017165207451E+02 -2.081158016770E+03 3.013186706663E+03 -1.156729550942E+02 -3.858156171177E+02 1.878988849295E+02 -4.853354078984E+01 3.575417677479E+02 1.006490504003E+02 -3.971999559087E+02 -1.181926342366E+03 -2.118887399638E+03 1.848318417503E+01 2.465088307490E+02 -2.192912492521E+00 4.701141145402E+02 -2.355966650135E+02 -1.938928115254E+02 -9.828800456398E+02 -3.973040013584E+02 5.676560813174E+02 -5.651943994365E+02 -5.972889765184E+01 -5.779487001721E+02 1.337770165111E+03 1.458456053135E+04
 1.039112096971E+02 5.658364997568E+02 -1.323833623286E+03 -7.352076294453E+02 5.014569876906E+02 -2.625406576518E+02 5.312972292214E+02 6.970239964485E+02 2.817378390110E+02 5.032823690573E+02 1.327885849191E+03 -5.035934423965E+03 -2.489557339118E+02 -4.618829877300E+02 9.606699748930E+02 -7.810604160352E+02 5.020491695097E+02 2.241135532952E+02 -8.944121113032E+02 -1.929798411313E+03 -4.568856364602E+03 -4.761778865824E+01 1.359230696376E+03 -3.195321103417E+02 1.198523594298E+03 -7.017108603920E+02 -6.009252206141E+02 2.098855880920E+03 -7.945101445245E+02 -2.383058041151E+03 -1.190962116800E+03 -7.947879670401E+02 -1.218342772470E+03 -1.478007424674E+03 2.315968731757E+02 1.358998604857E+04
 -6.417470336207E+01 -2.115061492322E+02 4.412458814311E+02 3.132528420867E+02 6.465107156229E+01 3.580574183286E+01 -6.992305270954E+02 1.101672239445E+03 -6.673614915644E+02 -5.482166089759E+01 4.295243528990E+02 -2.219350335901E+02 -4.501070154049E+03 -2.203854255709E+03 1.837114503344E+02 1.812814171003E+01 1.297300745693E+02 -3.587104785211E+02 -1.629388451531E+03 -5.324205374826E+01 -2.274869667277E+03 -9.068279968901E+01 -5.502028832490E+02 1.738103978007E+01 -2.121633117256E+03 4.920759829614E+02 3.265430004069E+03 2.661868120088E+02 6.560392904333E+02 -1.239633014648E+01 -2.517085583679E+02 4.850991061748E+01 3.529101025037E+02 -5.855867212282E+01 1.901566703713E+02 6.693511809058E+02 1.624878114158E+04
 1.263094314817E+02 2.646157287925E+02 -2.446325252892E+02 -4.197683009426E+02 1.360462958158E+02 -8.572466899031E-01 1.651295636673E+03 -4.974685509168E+03 1.983206483426E+03 -3.150316228393E+02 -6.431428696271E+02 -7.508784097101E+02 -2.719661005580E+03 -9.060156272206E+02 1.272492043816E+03 1.078242605829E+02 2.197379654728E+02 3.531298880395E+02 5.341783508608E+02 -2.428374040189E+02 4.431992025433E+02 8.979139038917E+01 3.874744584024E+02 3.287366438667E+02 8.936347989000E+02 -7.074093911719E+02 -1.651697205866E+03 -2.910872231970E+02 -6.174007690327E+02 -3.969576365995E+02 2.105100771365E+02 -2.821753997368E+02 -4.223208407177E+02 9.031165248502E+01 -2.654460089847E+02 -4.474703073194E+02 1.209445638982E+03 1.714947793906E+04
 -4.614849147078E+01 -6.691929878786E+02 9.155080929652E+02 8.667383152078E+02 -6.050815042779E+02 -1.601648356603E+02 -6.510809588365E+02 9.254953798114E+02 -1.174720667003E+03 -3.333010431357E+02 1.010676517457E+03 -3.565200202327E+02 9.080961680673E+02 7.089077729214E+02 -9.442809898256E+02 5.147077419977E+02 -8.310698264602E+02 -5.282964207882E+02 -2.492819955818E+03 3.722986613939E+02 -3.435642149087E+03 1.783326571340E+02 -1.522452838178E+03 -1.912327772191E+02 1.476955903310E+03 -1.763363944736E+02 -4.813163516742E+03 5.370316683411E+02 1.300556252723E+03 3.017051981140E+02 -2.944653960245E+02 5.571634229565E+02 1.425830749799E+01 -3.646336814128E+02 6.007795665794E+02 1.237508113298E+03 -2.330162647093E+03 -2.517495741216E+02 1.505680063984E+04
 -3.565772291601E+03 -7.583590850142E+02 -2.332856108375E+03 3.871214948901E+02 -2.324269083456E+02 3.189787724221E+02 -1.399130595201E+03 1.535787935842E+02 2.073753085337E+03 1.076312791871E+02 6.511289972417E+02 5.893584390966E+01 3.700434348161E+01 2.341985030154E+02 -5.916849548639E+02 -3.108127639292E+01 -3.825285072005E+02 1.819336074082E+02 -2.676643008118E+03 -2.323377703323E+03 1.369415984686E+03 -4.071125544866E+03 1.625015330655E+03 1.369904868881E+03 -1.513931490830E+03 2.368826908608E+03 -5.630259760724E+02 3.610465438032E+02 7.605488582440E+02 2.964128773808E+02 -5.591903503741E+02 -8.578790635545E+02 -4.521015087120E+01 -3.185014388036E+02 7.465786829045E+01 8.215358336901E+02 -1.685907115900E+02 8.955793769980E+01 -5.615322798927E+02 1.491661648869E+04
 -2.982211781735E+02 3.365547572584E+01 2.596340091367E+02 4.792700817260E+02 -3.938270259619E+02 -1.258565105717E+02 5.644369799110E+02 -1.017762417814E+03 -1.411072421249E+03 -8.019607610291E+01 7.108745260329E+02 3.211651490632E+01 2.091512434857E+02 2.462819556771E+02 -6.802055864162E+02 4.634393854371E+02 -5.274609273824E+02 -4.569622592248E+02 -2.190002721887E+03 -1.910499175436E+03 1.363441122046E+03 2.841734153100E+03 -2.560699954638E+03 -1.261696799262E+03 1.313102730171E+03 -5.240610352939E+03 2.414359826584E+03 2.438615458081E+02 5.602017221400E+02 2.928277791905E+02 -1.391082787153E+03 -5.114822640406E+03 -9.434400443052E+02 -6.467297499634E+02 -2.327206947787E+02 8.900652906740E+02 -4.942046785834E+02 -1.330976121023E+02 2.609058103536E+02 -1.470149027280E+03 1.605916594423E+04
 -2.953059723828E+03 6.271687627237E+02 -2.848795711608E+03 -7.977789613905E+02 4.810106264609E+02 -6.215285601685E+01 2.344874741995E+03 -4.515479833591E+02 -4.569532064607E+03 2.610263186756E+01 -9.356778777774E+02 -1.867126241685E+02 -9.430210089718E+01 -5.829822274636E+01 7.569428089696E+02 -7.123837306702E+01 9.054203857202E+02 2.635289434978E+02 1.758381647808E+03 1.073816866137E+03 -1.004647066406E+03 1.136899970796E+03 5.538593879951E+02 -1.534792821943E+02 -1.282628177338E+02 1.066409012909E+03 -1.408822766994E+03 -3.348917989129E+02 -1.176951610680E+03 -3.184977844704E+02 -2.203566733952E+01 -2.326523688815E+03 -9.749615521882E+02 -1.165138654153E+02 -1.032154112017E+03 -8.067054197223E+02 4.869589662777E+02 2.324916821696E+02 -4.877717619154E+02 1.404418669069E+03 -8.351595983194E+01 1.688876437005E+04
 3.304116683000E+01 3.096836763702E+02 -4.376728232077E+02 -6.076312894480E+02 -1.788994808023E+02 -3.468178528625E+02 -2.330007916523E+03 -1.933078463281E+03 2.896362268338E+03 -4.226462883634E+01 -5.080715375641E+02 1.865589915931E+02 -1.757837344442E+02 8.727949219294E+02 4.561548897417E+02 -1.201470934840E+03 1.434888099669E+03 -1.929061647286E+03 -3.266562613679E+02 4.450075291113E+02 1.152586010593E+03 -1.539988562448E+02 6.314554403105E+02 1.019140831884E+02 2.940999466281E+02 -5.045165779717E+01 -3.860007307457E+02 -3.275186683005E+02 -5.221617514993E+02 2.617329742703E+01 1.650328867204E+02 -1.207009328511E+02 -4.689217692518E+02 1.088919072443E+02 -1.872383193153E+02 -5.562197695818E+02 -3.960580119732E+03 2.611922052239E+03 1.461753919765E+03 1.771010615642E+02 4.576977790460E+02 -3.258611006887E+02 1.095233048761E+04
 -8.696689217906E+01 -3.528604679479E+02 8.922111940799E+02 4.142276671431E+02 -3.521482135025E+02 -2.916172159987E+02 -2.513550039076E+03 -1.916930605742E+03 1.581485862758E+03 2.533977957188E+00 1.176725806646E+02 6.658149636098E+01 1.211901627353E+03 -7.100699955128E+03 -6.115594914587E+02 1.537734266420E+03 -1.470779098616E+03 1.825997958791E+03 5.430391707308E+02 -9.234601752879E+02 -2.190562281701E+03 -2.182899178815E+02 -9.295773575881E+02 9.707793223958E+02 -5.813645910876E+02 4.166129893837E+02 4.684299886731E+02 3.242240615727E+02 6.285426336476E+02 1.859905666168E+02 -1.672368773490E+02 1.742692301600E+02 5.621753591443E+02 -1.680081402421E+02 1.833657236433E+02 8.172847023389E+02 2.622857452822E+03 -1.688183290395E+03 -1.606463132091E+03 -3.079751189866E+02 -4.841919858975E+02 7.369517860664E+02 -7.707933534196E+02 1.714843157488E+04
 1.002763732134E+01 -8.469907489542E+02 8.278801610528E+02 4.661179241520E+02 -6.479287114862E+02 -4.651871934810E+02 2.379530860431E+03 1.483109746598E+03 -3.054454666429E+03 8.961673612923E+01 8.681544475853E+02 -3.469393422486E+02 1.302157472531E+02 4.397893371334E+02 -1.055039004414E+03 -1.484043076204E+03 2.049175468467E+03 -5.236469952273E+03 1.034921132729E+03 -1.655509281004E+03 -3.938950037420E+03 2.315260109773E+02 -1.521389944896E+03 -7.638907301502E+02 -8.514191987332E+02 3.276835038886E+02 2.604600779530E+02 6.373438942241E+02 8.009185847961E+02 7.672833100526E+01 -3.326287556500E+02 4.198107667959E+02 8.965673157989E+02 -2.600902199515E+02 3.162873462792E+02 1.429699508912E+03 3.541422007313E+01 2.173276687193E+02 -1.310219287105E+03 -5.914670490811E+02 -7.839876310884E+02 6.378784507687E+02 -9.428736883766E+02 -4.197535210074E+02 1.451342217792E+04
 -3.695686210388E+01 -1.262713742212E+02 1.184769603844E+02 1.190948887911E+02 1.000840741937E+02 -5.085200017127E+00 4.113772679328E+00 -1.043052744149E+02 5.105914572840E+01 -5.041451694839E+03 -5.427002606888E+02 -1.613929882682E+03 -2.592035149674E+03 1.625533676005E+03 2.612259306938E+03 2.355956837080E+01 -6.502046730847E+01 -5.910005512199E+01 -1.205431699703E+03 1.903958270814E+03 -4.675765966236E+02 7.184328222045E+00 -1.599950624620E+02 -5.168162050643E+01 -3.438251189174E+03 -2.758506341902E+03 1.784003608148E+03 -6.687193563212E+01 4.472571473446E+02 -2.971677714483E+02 -2.772388081580E+02 -2.809159259478E+02 6.602468127077E+02 -2.399314267017E+02 1.440670184153E+02 -2.256901263607E+02 -2.744846311346E+02 -5.978660092750E+02 -7.025798609406E+02 -1.495819365333E+02 -1.740513563958E+02 2.763554392329E+02 -2.059077002804E+00 1.375739583665E+02 -6.505966739264E+01 1.362862180361E+04
 2.216438710162E+02 2.939270313278E+02 -1.007533360127E+03 -9.500466610456E+02 4.746176131972E+02 2.763208419567E+01 3.741654751940E+02 5.078191073097E+02 3.733653081539E+02 -2.760136089187E+02 -1.292541820781E+03 -1.242086803904E+02 1.573066785848E+03 -1.937738984737E+03 -5.924987200053E+02 -7.854306546907E+02 6.396194896937E+02 4.900582528609E+02 2.380829999998E+03 -3.775917836362E+03 7.283674036648E+02 -2.854176364886E+01 1.675251984233E+03 1.728903495611E+02 -1.695380623056E+03 -3.084400695801E+03 7.075457943471E+02 -8.516600782098E+02 -1.196147502763E+03 -4.306789899886E+02 1.566802658095E+02 -2.113783534216E+03 1.554992654080E+03 6.279694656975E+02 -6.955064257206E+02 -1.144433514300E+03 -2.184212272384E+02 -4.127726142656E+03 -1.645111604352E+03 5.934112092604E+02 3.116342906306E+02 -6.687573360667E+02 -3.630331490610E+02 3.083502247686E+02 1.188673301511E+03 1.062404886857E+02 1.412598776742E+04
 7.879053920926E+01 -3.340163593824E+02 1.913265512463E+02 1.895395108681E+02 -7.595646045319E+01 -9.815244895480E+01 -3.548211398762E+02 -8.177396060103E+01 -3.216335773486E+01 -1.383195159758E+03 2.358303991695E+02 -1.709239860498E+02 3.136062618221E+03 -1.874154122054E+03 -3.574419677806E+03 3.712793870063E+02 -6.620534380253E+01 -3.767440021754E+01 -6.955043883890E+02 9.725605238359E+02 -2.101628338907E+02 9.328539426272E+01 -7.285360301689E+02 -6.016044456303E+01 8.603268928566E+02 1.624241818420E+03 -4.033564414071E+02 1.130134431365E+02 4.150874103832E+02 5.933046252258E+01 4.138183169710E+02 3.152841900183E+03 -4.898601668252E+03 -4.604015904402E+02 7.685023142642E+02 -7.264748147364E+02 -8.176801175069E+02 -2.971467694570E+03 -2.563162191341E+03 -2.770526662465E+02 7.778725951579E+01 -5.900276135076E+01 1.274874523880E+02 -1.668970991307E+02 -5.780243212722E+02 -2.080401115249E+03 -1.579467836427E+02 1.341307882670E+04
 3.764443572712E+01 3.074548466178E+02 -5.813747615074E+02 -2.143851145837E+03 2.483418777262E+03 -2.580111959480E+03 -3.787553424413E+01 6.693327575543E+01 2.617410751265E+02 -2.026789898073E+03 1.495285830149E+03 1.889951640217E+03 -4.268377566987E+03 9.876664116033E+02 -1.872770953979E+03 -6.525094147749E+02 -5.128870111312E+02 4.912588655766E+02 -3.201548045656E+03 -6.182510116373E+02 2.158459048301E+03 -3.132064350674E+01 8.248527442774E+02 3.646230285866E+01 5.967965709491E+02 -5.116452917018E+02 -2.807824666577E+02 -6.657298504078E+02 -6.558950230609E+02 -5.658572183978E+02 2.511489516756E+02 -2.825410475961E+02 -4.854474506050E+02 5.673736607593E+01 -1.700386373325E+02 -6.455194574695E+02 -5.332274156791E+02 -5.943504311151E+02 7.130700887301E+02 3.676880855979E+02 3.270759457218E+02 -4.666770297724E+02 -1.989733152034E+03 -1.883646654738E+03 -6.434180810696E+02 -4.250187916316E+02 -7.840990314848E+02 6.740071819848E+02 1.465047067800E+04
 -1.136266047233E+02 2.722691134715E+02 -2.976754528925E+02 1.156629602795E+03 -1.956687659769E+03 2.725952103409E+03 -2.338983142895E+02 7.376312094233E+01 2.956913807168E+02 2.179756850867E+03 -2.952624142939E+03 -2.444286734747E+03 1.032383235245E+03 -7.011568867120E+01 1.559119880626E+03 -1.175799192498E+03 -5.283957578714E+03 1.682533107204E+03 -1.170518548885E+03 -5.246916652150E+02 6.270910681522E+02 -2.289109247397E+02 4.370141081516E+02 3.549641628457E+02 5.355462694571E+02 -5.005361092598E+02 -5.198839810059E+02 -1.318519684248E+02 -1.348971592314E+03 -2.434110428388E+03 2.497867541359E+02 -3.328579490046E+02 -3.675684325378E+02 3.569063788409E+01 -3.210564045366E+02 -5.322080808001E+02 3.447116460033E+02 -2.979381256253E+02 6.967813709113E+02 3.275510610355E+02 3.338550592453E+02 -6.157275106940E+02 -2.750428533218E+03 -3.030076503651E+03 -1.161705026552E+03 6.677916313078E+02 -6.777864101110E+02 -3.893378583274E+02 -8.366634298581E+02 1.609989673140E+04
 -7.985029340610E+01 -6.828788706210E+02 6.855453038025E+02 -1.112978754836E+03 2.391748692598E+03 -3.325407202972E+03 8.482535416495E+01 -1.067250211301E+03 -3.828971573772E+02 1.826470084433E+03 -1.029812994657E+03 -1.671703362986E+03 -2.317209117118E+03 9.056097392626E+02 -1.959373349153E+03 6.074140874468E+02 6.624835146076E+02 -8.916871994578E+02 2.360299031250E+03 1.021626817891E+03 -1.576243033615E+03 1.508384952346E+01 -1.308591748191E+03 -2.602474940147E+02 -7.351975827494E+02 7.026074871949E+02 5.627432828384E+02 4.264512372661E+01 -8.172183734847E+02 -6.109438997635E+03 -2.929899405971E+02 6.301399414288E+02 6.276010915473E+02 2.137730052581E+01 5.439067007158E+02 4.260151535813E+02 -6.636364866708E+02 4.770305673857E+02 -1.000991622240E+03 -4.753425252501E+02 -6.405850729319E+02 9.951827223434E+02 -1.042154994450E+03 -2.849510201943E+03 -2.049194931854E+03 3.158606286987E+01 1.041976966066E+03 -2.232075350851E+02 1.765131369801E+03 1.725151033872E+02 1.720975117518E+04
 -5.280606018695E+03 -7.646735296609E+02 1.356838727607E+03 -3.986769828809E+03 -7.681569327365E+02 3.767433739500E+03 -3.367487793418E+01 2.947060090543E+02 -2.989513147471E+02 -1.447902964183E+02 -2.748773605701E+02 5.327803455102E+01 -3.539088096479E+01 -1.914598010777E+02 3.958480754495E+02 -3.714278541813E+02 3.861583703760E+02 2.672147038159E+02 -2.036699065146E+03 1.546942996660E+03 -2.087899319023E+03 -1.768162859994E+03 -1.563909838613E+03 -1.593310106247E+03 3.407762033618E+02 -1.545146595955E+02 -4.380127463126E+02 -8.953074077896E+02 -1.768017050403E+03 5.534714715712E+02 -2.163968705978E+02 2.259670985397E+02 -5.183851813154E+02 -1.539326612238E+03 2.468143681023E+03 1.419765230925E+02 2.254843673926E+02 -2.048909698550E+02 3.250853990328E+02 -5.366098300192E+02 1.369114314660E+02 -7.261802374583E+02 -2.138570836331E+02 1.541686908974E+02 5.490475720254E+02 1.092552794265E+02 -5.601446076616E+02 2.654661711477E+02 -2.689085049158E+02 -2.218851828749E+02 5.210159855960E+02 1.638071986099E+04
 -9.998663385320E+02 -2.283980130104E+01 6.322269770153E+02 -3.778652789801E+02 -4.409164587566E+02 9.283306526085E+02 -2.197465846558E+01 -6.472627329270E+02 -5.346461846261E+02 3.295339245363E+01 -7.697927688434E+01 4.354501086775E+02 -7.058651730833E+00 1.068392509349E+02 -6.314161240982E+02 1.849301788188E+02 -1.029152875529E+03 -1.961991323663E+03 1.324579315123E+03 -8.422916287723E+02 1.609424834300E+03 -2.268608671415E+03 -3.557832557856E+03 -2.574726596820E+03 -3.238247029221E+02 2.610873495310E+02 3.516608079766E+02 -9.247830634542E+02 -5.778711009123E+03 2.348690559051E+03 3.586790529442E+02 -1.513026541719E+02 5.874035469578E+02 2.390324972949E+03 -4.060319891777E+03 -6.413109390473E+02 -1.121201442359E+02 2.702271863202E+02 -6.001156287291E+02 -4.741971541116E+02 -2.369456671057E+02 4.196216039896E+02 8.812863793076E+01 -3.917448480684E+02 -6.841466504784E+02 -4.915183506880E+01 5.674068288781E+02 -3.900216558360E+01 2.290237127096E+02 -9.630018640011E+01 4.797213011771E+02 1.167555076764E+03 1.651030959447E+04
 1.780916556645E+03 1.247696617058E+03 -1.226357809506E+03 2.485205299461E+03 1.396337493892E+03 -3.510977500733E+03 -1.140082958727E+02 7.298297605259E+02 -6.337058724802E+01 -7.184724463037E+01 -7.419578658618E+02 -2.457388341595E+02 -2.462260988375E+02 -1.945450202636E+02 7.942114724334E+02 -3.851792619285E+02 -9.346391048036E+02 -5.421320387708E+03 -2.224623318076E+03 1.499098720941E+03 -2.453757637480E+03 -1.808086455787E+03 -4.777658106298E+02 -1.423017205368E+03 1.055761200128E+03 -8.605162037242E+02 -7.276049145626E+02 -1.503477658845E+02 3.069984305916E+02 -8.910172744751E+02 4.284037969285E+02 -7.523028334965E+02 -6.093106302797E+02 1.003278197469E+03 -1.814470727255E+03 -1.394428058198E+03 3.457604286050E+02 -6.217985424407E+02 1.224922415440E+03 7.244832563083E+02 6.513542888952E+02 -9.944562685050E+02 -5.334885785165E+02 7.032032512482E+02 7.391736315028E+02 5.059898767837E+01 -1.224286493348E+03 2.134483741012E+02 -3.030579171486E+02 1.947215141971E+02 -4.826332935999E+02 -2.584436676491E+03 2.520266403874E+02 1.600091261689E+04