#BIOSYM hessian 1
@Type: Hessian Update
@Units
 distance: 	A
 energy: 	Kcal/Mol
#header
@natom 19

#label
L1      L2      L3      L4      L5      L6      L7      L8      L9      L10     L11     L12     L13     L14     L15     L16     L17     L18     L19

#element
Li Li Li Li Li Li Li Li Li Li Li Li Li Li Li Li Li Li Li

#matrix
57
 2.206643212578E+01
 -8.698894778514E+00 1.025079152082E+01
 8.344889247191E+00 -1.230524935240E+00 8.792752579238E+00
 2.565327447331E+00 -9.758938456539E-01 -1.437899291300E+00 6.713974316565E+00
 -5.182817273665E-01 -6.034061330715E-01 -6.489728251755E-01 -1.485369727217E+00 1.723587700373E+01
 3.988645304295E-01 -1.520730998921E+00 3.191747018723E-01 -3.571485231741E+00 -2.000823021298E+00 2.810723360477E+01
 -1.356860921062E+00 3.351689319600E-01 -1.350752024963E+00 -4.279456699995E-01 2.288620935358E-01 6.846856359794E-01 1.881603819840E+01
 1.007284613679E+00 -5.019830277459E-03 -1.172039377869E-01 1.465125778483E+00 -1.750888898453E+00 1.339399941109E+00 1.765903610070E+00 1.492178311915E+01
 -1.400884350626E+00 1.145806348689E+00 -5.605090946033E-01 5.956555337448E-01 -1.284448280344E+00 -2.724864365172E+00 1.629368186059E+00 3.064224173573E+00 1.127072545590E+01
 -9.118350030240E-02 -2.054351757124E-01 5.639670325143E-01 -1.350606981862E-01 -4.243872805722E-02 -3.149014901165E-01 -6.355829070635E-01 4.687860532422E-03 4.458651017870E-01 1.074970465591E+00
 4.945517052896E-01 -1.648954685843E-01 -7.202135878719E-02 1.818197207430E-01 -1.765381995718E+00 -3.225102237169E-02 -1.475504080887E+00 6.376454795456E-01 7.069575321256E-01 -6.546477806628E-01 2.118950864188E+01
 -6.965970523085E-01 -2.241212983038E-01 5.019867730255E-01 7.516774680752E-01 6.420053774917E-01 -7.983871883514E-01 9.101756370356E-01 -1.009398910832E+00 -1.891012063992E-01 -7.594118161365E-01 -8.590337511317E+00 1.545339010286E+01
 -1.164416442836E+00 2.591475476699E-01 -1.794105276165E-02 7.405099180566E-01 -2.747369808664E-01 2.205650929950E-01 -1.154250904771E+00 -1.924005315567E+00 1.770899181852E-01 8.057273238370E-02 2.400993073312E+00 -2.400421587997E-01 1.123891533548E+01
 -8.773341257203E-01 3.594575665008E-01 -1.346673829296E-01 -1.438622723179E-01 1.790209772275E-01 -3.720457174001E-01 2.936874587013E-01 -5.420486464481E-02 -5.614623939883E-01 -3.464560172229E-02 4.612324700933E-01 1.382040435945E+00 -1.573855438553E+00 3.162668988888E+00
 -1.519077644460E+00 5.543211221702E-01 4.953702242125E-01 5.890677711643E-01 -9.135027103110E-01 4.954941466907E-01 3.698969408657E-02 -6.931380367769E-01 9.724953816958E-01 9.494330924033E-01 3.393630408122E+00 -6.423702575976E-01 1.460144791158E+00 3.801873432052E+00 9.618728633093E+00
 2.541837243619E-01 -5.046653704913E-01 1.479881724956E+00 4.346197890995E-01 9.917850417192E-01 -1.197922196178E+00 8.472329554653E-01 2.808738496876E-01 -6.243577793199E-01 5.474143513834E-01 -1.936877895588E-01 -1.116327797131E+00 -1.459999600297E-01 2.231500268067E-01 2.267313643657E-01 1.079628599168E+01
 6.167960784571E-01 -2.642364556543E+00 -3.182901036398E-02 4.772488505363E-01 -2.771208379300E+00 1.036172498353E+00 -1.106090644512E+00 -5.323746192310E-02 8.307520410197E-01 4.016107812613E-01 -2.527369028149E-01 4.975745887754E-01 1.099815051113E+00 3.590835108840E-01 1.774299585344E+00 7.051353990576E+00 1.759659717530E+01
 3.739608292726E+00 -3.895217723845E+00 1.096157098760E+00 6.420256636824E-01 -1.019205265653E+00 -1.959895927931E+00 4.860291513912E-02 2.852832702085E-01 -1.051011743661E+00 3.887422937383E-01 8.311303786018E-01 -2.180280657597E+00 -2.246371483280E-01 -8.328803976309E-02 2.958014692396E-01 8.658541836978E+00 1.329118947576E+01 1.756230465074E+01
 -1.563179153393E+00 1.204014957360E+00 -1.441261599120E+00 2.031585891972E-01 2.291783727019E+00 2.009808050066E-01 -9.534402564025E-01 1.433575119754E+00 1.555369863336E+00 -5.997918025783E-03 -6.332766650194E-01 -7.730588300641E-01 2.246858384837E+00 -6.036675018699E-01 1.005363881983E+00 -4.261775504372E+00 -1.233388107296E+00 4.561347778378E-01 1.448225478111E+01
 2.416640196798E+00 -8.133341983688E-01 1.167118202773E+00 2.514945539208E+00 -1.031091500034E+01 3.661049352194E+00 2.193410910987E-01 2.643394806372E+00 1.164658425505E+00 7.766813009062E-01 2.228544233665E+00 -1.689818955893E+00 -6.222686107563E-02 5.958348903868E-01 1.469575904118E+00 -6.255245914739E-01 -1.172991296859E+00 -9.742883988507E-01 -4.499896708290E-01 1.512553046675E+01
 1.355888060610E-01 -7.251025867941E-01 -1.756461635139E-02 -5.129266673366E-01 2.429922248405E+00 1.164511910371E+00 -1.237942486251E+00 -7.781289490697E-01 3.463443752732E-01 4.515127023424E-02 7.253828305444E-01 7.291870082013E-01 1.746574221084E-01 -4.710430859788E-01 -7.023956698969E-01 1.646261968219E-01 -1.796420845623E+00 -9.569095905946E-01 3.236472235695E+00 -2.588091052245E+00 7.010326217553E+00
 1.226401971025E-01 -4.917001276205E-01 -1.886751530242E-01 -4.939223897856E-01 3.037952483762E-01 1.020612357039E-01 2.241465050320E+00 -3.091592407673E+00 2.948021115331E-01 5.046451100971E-01 2.450327979275E+00 -1.101181455758E+00 -8.728266857889E-01 1.634318819882E+00 3.614337514169E+00 -1.164883562535E+00 -2.620353480619E-01 -1.289991724772E+00 -1.739645947377E+00 -1.582147724111E+00 -4.287506785265E+00 1.510334504673E+01
 -1.710023320115E+00 7.588197417406E-01 -1.463279523857E+00 -8.246557623063E-01 -2.794330718965E-02 6.637966117872E-01 -1.693707586791E+00 3.709394470417E+00 3.712410466475E+00 1.601855711803E-01 -3.318182407404E+00 6.070170877711E-01 -7.266628969278E-01 -2.280447585606E+00 -5.260897082215E+00 1.093410015394E+00 2.057457898097E+00 5.658745425183E-01 6.341848621541E-01 -1.734234989432E+00 1.591957514244E+00 8.682799506236E-01 1.138720756258E+01
 4.193762204484E-01 6.205280003923E-02 -7.709446178012E-01 -3.578249473437E-01 1.238381613315E+00 -1.741056391660E+00 -9.158159509045E-01 6.863539958927E-01 -4.188277176327E-01 -6.345806118156E-01 -1.548139326391E+00 -1.400790137235E+00 -1.175029791230E+00 -3.452078765773E+00 -7.769911203542E+00 -7.082529660367E-01 -1.048001580956E+00 -7.217322550122E-01 -2.530930572106E+00 5.918186623976E-01 -3.985598266120E+00 1.164400262376E+00 4.930012844585E+00 1.144559958817E+01
 -7.253836973823E-01 -2.211327631848E-01 -3.509688303936E-01 -1.432080401384E+00 -6.029191814592E-01 7.167088093383E-01 -1.106915016130E+00 -4.605493408914E-01 -3.742638194059E-01 -6.284540770178E-02 1.632149247360E+00 1.417245167508E-01 9.167464436512E-01 3.321611635688E-01 9.114224965706E-01 -7.331055882148E-01 2.187243157642E-01 -1.218210224476E+00 -1.044368984789E+00 5.204955260714E-01 -8.992371192701E-01 1.024903119467E+00 -8.894829880741E-01 4.445921145413E-01 1.609818637750E+01
 4.814767180485E-01 -9.054216941217E-01 -4.610632950381E-01 -1.178962701748E+00 -2.275502662661E-01 1.599923221825E-01 1.681177336639E+00 -2.174219795383E+00 -4.280283974124E-02 -2.949864191505E-01 -1.239048920430E-01 -3.358517013213E-01 -1.300298861209E-01 -4.243422778067E-01 9.111350417751E-01 -4.256682987353E-01 1.076202227622E+00 4.940131626122E-01 1.788013700382E+00 8.042333253212E-01 -9.724362731608E-01 8.626943017237E-01 -1.601300283164E+00 6.660736764263E-01 5.821475671430E+00 2.747044273162E+01
 -9.458695195587E-02 2.148680275212E-01 2.283147774829E-01 -1.424825134307E+00 -1.366265276533E-01 -3.289949984635E+00 6.799895329546E-01 4.614554060881E-01 -1.332975075721E+00 -6.041561381202E-01 -1.870587959912E-01 -4.008576593289E-01 7.481533502282E-02 1.387996334129E+00 -3.058748437028E-01 3.047975742202E-01 -1.793553147662E-01 -2.481009242883E-02 -8.862040456805E-01 -3.365364846852E-01 2.716624653364E-01 3.732783495599E-01 5.622655511623E-01 -2.094017000481E-01 -1.700280664298E+00 -7.123977717594E+00 1.053124055204E+01
 -3.096797811275E-01 3.843279510430E-01 -1.677144216275E-01 7.837197002824E-02 -1.186914637889E-01 -1.355208422101E+00 -4.271389013462E-01 -7.213791184907E-01 8.931160402963E-02 -1.233146410510E+00 1.991807224622E-01 1.378316717006E+00 -8.049530436223E+00 1.611186906513E+00 8.393249321417E-01 -5.089165835507E-01 -7.321095199615E-02 -1.532646719591E+00 -1.125065962995E+00 -1.705246842656E-01 9.064215741189E-02 7.874456558526E-01 -3.567925031707E-01 8.185677371512E-01 -2.457903472781E-01 9.648982445558E-01 5.949551931534E-01 1.486763321796E+01
 -2.186662093819E-01 6.609934492786E-01 3.354260025348E-01 1.416995790690E-01 1.107409596902E+00 1.729461517699E+00 -3.671147722853E-01 -9.398164820121E-01 -1.673407607027E-01 1.695580521647E+00 -4.304615205471E+00 -1.851974259388E+00 7.598397860210E-01 -1.369329350245E+00 -3.985860448425E-01 4.874780993617E-01 -9.079452742067E-01 5.738148035388E-01 7.582261335193E-01 -5.825031669495E-01 1.587008299073E-01 3.258976154953E-01 1.109261709923E+00 -1.447854224019E-01 -8.961623096026E-01 -3.906822988321E-01 -5.053169934932E-02 -5.559464153565E+00 9.351812177035E+00
 -2.991565106313E-01 5.445296981369E-02 -1.001525093793E+00 -5.697739635303E-01 7.112835267431E-01 8.778735778280E-01 2.985307201043E-02 -1.539098174461E-01 -1.591945062980E+00 1.215900893925E+00 -1.243994064636E+00 -2.272338476321E+00 -5.846042194664E-02 -5.460185231053E-01 -3.197821418215E+00 1.210853114186E+00 2.662767875808E-01 1.945319801274E+00 1.147560339255E+00 -4.077551343867E-01 1.653763209677E-01 3.662104248590E-01 6.724099905093E-02 1.297019541296E-01 2.713919286422E-01 -4.153643189563E-02 -3.402987251729E-01 -1.027021625469E+01 2.795884430446E+00 3.129007304792E+01
 6.935924799310E-01 4.898062986661E-01 1.594942434800E+00 8.394189576865E-02 -7.588953369200E-01 1.987812363747E-01 -3.811877904889E-02 8.659316475791E-01 2.908261199359E+00 -5.694616782823E-01 -3.305130038287E+00 2.324493198813E+00 -1.785491495574E+00 8.048106851987E-01 -7.230982143826E-01 -1.985791578723E+00 3.442025990131E-01 -1.092457661602E+00 -3.211820110915E-01 -9.881207578734E-01 -1.651747239528E+00 -3.244697953858E-01 -1.524636978517E-01 1.188007516604E-01 1.667145705126E+00 7.772903926226E-01 -3.162312273259E-01 -1.130225718548E-01 -7.143320631328E-01 -3.471360556122E-01 1.671753939704E+01
 9.558575710214E-01 4.172294818553E-01 -9.246423413519E-01 1.712283470361E+00 -1.191239705184E-02 -1.454990277998E+00 6.632420719731E-02 -2.984561844658E-01 1.434950898432E+00 -3.930010235874E-01 -1.700736012333E+00 -4.368561157298E-01 4.753072161231E-01 5.037564220936E-01 1.474725926774E+00 -1.218404134127E+00 -4.705035190536E-02 2.268882232498E-01 1.432363869589E+00 -4.251277265350E-02 -8.936125707896E-01 1.493383905728E-01 -5.658634600940E-01 -5.501544369467E-01 4.972649097307E-01 -7.280342124124E-02 1.031495716705E-02 9.476721693269E-01 -1.357803932524E-01 7.477733701073E-01 -3.192803139536E+00 6.077731003907E+00
 1.613960763253E+00 -2.987146469302E+00 2.090779474396E-01 2.512708121050E-01 6.333972287509E-01 -1.652077151615E-01 -1.007119470226E+00 -3.975291858933E-01 8.010042462590E-01 6.716531091730E-01 -3.081163946166E-01 -1.129117842779E-01 3.342534825123E-01 -3.126199660729E-01 4.405663928143E-01 2.883708209861E-01 -3.470109841705E-01 -9.989093584572E-02 -1.784294715521E-01 9.853132485371E-01 1.655034495192E+00 -2.596313295282E-01 8.741575806115E-01 -5.586247764471E-01 -2.799538554053E-01 -4.688742617485E-01 2.191720940963E-02 3.833396045911E-01 6.986628120368E-01 -5.971225090357E-02 -6.835807304588E+00 2.437838245052E+00 5.270902001278E+00
 -2.552847723845E+00 6.110413814014E-02 -2.223971483548E+00 4.835143683578E-01 1.929524115321E+00 1.306297089361E+00 -7.962566583715E+00 2.041924469033E-01 2.272742313521E+00 -2.928677808004E-01 2.699683874052E+00 -1.134585027858E+00 -9.877411955987E-01 -1.021268925636E+00 -1.908981722220E+00 -6.920931394376E-02 6.000237747597E-01 -3.830053790203E-01 5.576735854436E-02 -2.243353912774E+00 1.922398185002E+00 -2.501780878815E+00 9.590465372744E-01 1.063539469628E+00 -3.396037139534E-01 -1.048145499769E+00 -2.918681513895E-01 -1.705349518068E+00 1.849194283841E+00 -1.013580821756E+00 1.859418971859E+00 -1.893548035542E+00 -5.760905832175E-01 1.433836273423E+01
 -1.465019313461E+00 -1.328598119207E+00 -1.350743257551E+00 -1.415874530891E+00 5.351119433323E-01 -1.557774138390E+00 -1.083392468039E+00 -3.263746268390E+00 -1.573468541250E+00 2.007318649505E-01 -7.165689684467E-01 7.540812909137E-01 -1.523875492597E+00 7.966672802182E-01 -5.643885826611E-01 5.603260510688E-01 -1.923298443749E-02 -1.843831344807E-01 -8.735943185326E-01 -3.688439051812E-01 1.073461777089E+00 8.726483294291E-01 -2.664649943475E-01 -1.645665299940E-01 -2.634144537142E-01 -8.095294893254E-01 -1.088755571231E-02 1.251490897767E+00 -3.256105967838E+00 4.661336112457E+00 -1.521795333107E+00 -7.834463059199E-01 9.522724053249E-01 -6.583613432662E-01 5.623118565514E+00
 -1.662980417900E+00 1.534156162705E-01 -7.489266715507E+00 2.102024104032E+00 4.487797331812E-01 -1.983258734674E+00 -4.455948439939E-02 1.965068305652E+00 -1.527062763479E+00 2.367408716816E-01 -7.591728341511E-01 -3.620393879329E-01 7.768400867037E-01 5.680799878504E-01 8.193759133827E-01 -1.207461301585E+00 -1.460121391499E+00 -1.318795742276E+00 -4.181339450653E-01 -6.747724899508E-01 3.225229301671E-01 8.020655167312E-01 1.126356869678E+00 -7.367785341333E-01 -1.207055940841E+00 -1.152671065573E+00 1.038621847613E+00 -2.603938858772E+00 2.611911468967E+00 -7.626368294887E+00 -3.976149198293E+00 -1.049392503771E+00 -3.269257346329E-01 4.260153472832E+00 -4.165724778530E-01 2.070831912890E+01
 -1.726601543254E+00 2.376859188656E+00 -1.470956397755E+00 5.975097982793E-01 -3.421541777617E-01 4.193678192248E-01 -4.894315681560E-01 -7.937595415568E-01 -4.294322193947E-02 -8.739543508227E-01 -4.921520145386E-02 4.169545030075E-01 -6.174377259872E-02 1.010374856396E+00 3.078169099861E-01 -3.830332990994E-01 -1.484333026239E-01 -1.637056971381E+00 -8.499194833130E-01 2.143290876304E+00 1.268709366452E+00 -7.074254848782E+00 -1.977480749523E+00 -1.377541923069E+00 -1.084912779905E+00 -1.092049899935E+00 8.194929693375E-01 3.841058987612E-01 -5.623914306406E-01 -4.026531071772E-01 -6.512339698842E+00 5.558892509573E+00 3.511625173436E+00 1.922310923615E+00 -2.436383772412E-01 6.847819856767E-01 1.515662354161E+01
 -2.369333977533E+00 7.551910705810E-01 -7.660257997854E-01 -6.977975437354E-01 1.380285933638E-01 1.952881524259E+00 1.007037142996E+00 -2.232966369364E+00 -3.506792639238E+00 1.650568917825E-01 -2.067681580314E-01 4.028357752441E-01 -2.556641446858E+00 6.320544145358E-01 -2.229159321272E+00 5.043850874054E-01 -2.029920723161E+00 6.970085980712E-01 -1.124569060059E+00 1.956329702618E+00 3.010763837377E+00 -3.901172492521E+00 -1.344003799999E+00 -1.324458361428E+00 -5.898728145075E-01 -7.884654645963E-01 -1.249453389400E-01 5.104157648319E-02 -1.323639819992E+00 -1.911432505686E-01 6.293184106806E+00 -6.746224298590E+00 -4.009690369623E+00 5.831807775537E-01 3.039803661237E+00 2.232168513985E+00 -5.041246127362E+00 1.877699924881E+01
 -7.156307572658E-01 2.661436911462E+00 -4.555831600433E-02 -5.795036331813E-01 -2.129668458186E+00 2.226768842519E+00 2.330984822652E-01 5.301626854153E-01 2.926468550926E-01 -9.808484394976E-02 -3.070308084732E-01 -7.481406386431E+00 4.856469892682E-02 1.566694340427E-01 1.009494847578E+00 5.662559132548E-01 7.642096863939E-01 -3.694141420363E+00 -2.678514431130E+00 7.369328411665E-01 -2.076919266042E+00 -1.295810242969E+00 -1.731479050906E+00 -2.338765384226E-02 5.562334239250E-01 7.081804660129E-01 4.537535878681E-01 4.492642744681E-01 -9.207027092844E-01 -1.070366469046E+00 6.885001148097E+00 -1.072371354310E+00 -4.143399908938E+00 9.872038771108E-01 -2.386809814192E-01 6.943756073504E-01 1.669353281101E-01 1.388331437177E+00 1.636174110768E+01
 3.217726532378E-01 6.929560267733E-01 -1.644401564542E+00 -7.007742391336E-01 -2.457742050847E-01 1.579571263530E-02 -2.423383621123E+00 -1.056828603864E+00 -4.362901038647E+00 1.869443041037E-01 -3.072858117172E+00 3.989444144101E-01 -6.351956702832E-01 -1.852828806017E+00 -5.313378703307E+00 3.397342856528E-01 -4.686362348595E-01 9.174286350076E-01 6.683998748086E-02 -6.424034134032E-01 7.802166617331E-01 -3.137785132334E+00 2.167831311668E+00 3.067356088464E+00 7.803162650660E-02 -9.149736133561E-01 -2.261805357864E-01 -2.828042525325E+00 1.783794430343E+00 1.177168566259E+01 -3.774494792293E+00 -1.293507964714E-01 3.585052281518E-01 -1.635904588390E+00 2.560807331529E+00 3.486932761188E-01 1.002765443688E+00 1.177189036326E+00 -2.373985139516E+00 1.068693940215E+01
 -3.017078633361E-02 -4.132899575702E-01 5.152619915077E-01 -6.022551424508E-01 2.048139185181E+00 -2.379419752190E+00 -1.149519794137E+00 -9.930363531814E+00 -2.273350922531E+00 -7.150491139383E-01 -1.147454700278E+01 8.464983397732E+00 1.494249617477E+00 -4.135503237740E-01 -1.792464817592E+00 -3.366813505852E-01 6.655280769266E-01 -1.697180294107E-01 2.810432656634E-01 -4.342425437900E+00 -7.230042025769E-01 1.691329824474E+00 3.165115833574E-01 1.537081149784E+00 -1.716872016113E+00 1.578392416545E+00 -1.991929067669E-01 2.106997152386E+00 7.564163858065E-01 -4.665619927212E+00 2.380082185562E+00 1.349881263645E+00 -3.287282570438E-01 -2.404590890856E+00 1.501994665750E+00 -1.111975775812E+00 -7.067810505360E-01 -7.904805184821E-01 -2.058229840064E+00 7.381387250586E-01 1.651376159868E+01
 1.617778337560E+00 -1.066725256859E+00 3.354086361216E-01 6.473570949684E-01 -1.331503262326E+00 -2.887261188821E-01 -2.039807244466E+00 2.475541048350E+00 1.427959839927E+00 -1.643052040946E+00 3.623247680034E+00 -1.238571748199E+00 6.640070538422E-01 -9.116023505365E-01 8.312100321998E-01 -2.973524773265E+00 -8.588220348949E-01 -2.713253507398E+00 7.196409660114E-01 -1.269646258198E-01 -8.821927087227E-01 3.272171068217E-01 9.366987180208E-01 2.376954626450E+00 1.922266331186E+00 4.177587832436E+00 -3.371618149297E-01 9.249622038792E+00 -4.659049511192E+00 -1.779597693252E+01 -5.269896229803E-01 1.320382287422E+00 5.563084898740E-01 -1.276031720144E+00 -3.325789850373E+00 6.299893220597E-01 -1.151590013592E+00 -4.395621731137E+00 1.485412327956E+00 -6.200727676101E+00 9.521321534492E-01 1.737194886317E+01
 1.583795001458E+00 1.804917834763E-01 7.762616273990E-01 -1.365399436037E+00 -1.214362232807E+00 -3.816001709241E+00 -4.855996544191E+00 1.138187257251E+00 -9.585239452665E-01 2.426858193746E-01 2.513543416458E-01 8.111063322263E-01 5.299218749403E-01 -4.763851990029E-01 -5.337261773235E-01 -4.699124338298E-02 -1.438416159681E+00 1.043725721645E+00 -3.686118785761E-01 4.765086705018E-01 1.220920695613E+00 -5.294187720457E+00 9.678609979626E-01 -4.705281654117E-01 -6.014664383416E-01 3.223032728598E+00 -1.482264391605E+00 -7.710117532371E-01 3.783122535001E-01 8.484432855610E-01 -3.114395185017E+00 -9.425056475208E-01 3.015784147581E-01 -1.445924333749E+00 -2.672585145959E-01 2.047007438585E+00 7.286688690986E-01 -4.500176296298E-02 -2.956799667899E+00 5.344709263748E+00 -4.982704477695E-01 1.293382110269E+00 1.693125956653E+01
 1.132751406443E-01 -5.436053433254E-01 4.666293277778E-01 -5.037805110405E-01 9.127240723427E-01 -1.805841760249E+00 1.644605184492E+00 -1.555442381816E+00 -2.827986715859E+00 -2.727136194537E-02 -7.279424982993E-02 -3.994530343386E-01 1.189352955270E+00 -1.212282903627E+00 -4.684507803665E-01 -9.801444821916E-01 -1.137104041882E+00 -3.956999072038E-01 8.443337294599E-01 -1.120559920114E-01 -7.647343447133E-03 -3.033070933890E+00 -5.257418206141E+00 4.348373194959E-01 2.483694881072E+00 -3.599844787178E+00 3.209523680671E+00 4.996236323770E-01 1.549339073771E-01 -4.422031679632E-02 -1.960983841217E+00 -5.716175349858E-01 -1.002274244004E-01 9.054265571111E-01 1.037155451084E-01 -1.365297875815E-01 1.100536387976E-02 7.600111276415E-02 2.993534346274E-01 9.239664025958E-01 -4.353797343304E-01 9.762696015451E-02 -8.168752912554E-01 1.088417933038E+01
 -3.576758164088E-01 -4.087855800233E-02 -1.915889742030E-01 -4.036551558426E-01 1.962111712061E-01 -6.191137404697E-01 5.154512201989E-01 -1.895479181491E+00 -1.745933107147E+00 4.412759182257E-01 -5.429195264031E-01 6.941061255152E-01 -1.504150888141E+00 -7.829078507130E-01 -3.812564394970E-02 6.997997939655E-01 -1.810241597632E+00 1.195093235569E+00 -7.701302229123E-01 -7.497303376687E-01 1.757566439408E+00 -1.741135463107E+00 -5.691151995756E-01 -6.403504195318E-01 -9.522021704312E-01 3.581152127619E+00 -4.170832069133E+00 -8.224777060132E-02 9.257959322543E-01 1.574346727542E-01 -2.940909649686E+00 -1.083254324831E+00 -1.118649896786E-01 7.981187450152E-01 6.635949795264E-01 2.465901151528E+00 1.391501568211E-01 6.008982713181E-01 -2.172789238531E+00 2.201146612602E+00 3.839300625223E-01 -1.262039635411E+00 9.790030187076E+00 1.830520134768E+00 1.480051090738E+01
 -5.138087265196E-01 -5.617158164275E-03 1.037242394341E+00 -2.013983573158E+00 4.615709180256E-01 -6.256829792857E-01 3.340127806451E-01 -6.620058005174E-01 1.354458844014E-01 5.777330012760E-01 1.636108111994E+00 -4.525535395211E-01 -1.157075502057E+00 -3.382551378678E-01 -6.092096237982E-01 -1.581186030958E+00 -3.656848920297E-01 -6.989234408953E-01 -7.805971168601E+00 -4.603655587618E+00 1.370652414764E+00 -9.998550845055E-01 7.150508608419E-01 -1.801697832018E-01 -1.654914794975E+00 5.558720800620E-01 5.179373736079E-01 6.737251734055E-01 -5.055221246914E-02 -5.121192634871E-01 8.546986783261E-02 8.932793230542E-01 1.739216860261E+00 -9.736300314346E-01 3.577685543126E-01 -1.363495677818E+00 1.638919878252E+00 1.742133170830E+00 -9.926220307550E-01 -8.144680273841E-01 -2.059421952088E+00 4.545581730010E-01 -2.295319308041E+00 -9.486436978971E-01 -6.618353644324E-01 2.259432271875E+01
 1.054841023530E+00 -5.172405832184E-01 5.286683700435E-01 1.165494620620E+00 -2.125256718667E+00 1.438927945204E+00 -9.360137536522E-01 1.412364440840E-01 -1.165209571281E+00 -7.218184214434E-01 7.167696855519E-01 2.388778046279E-01 2.432599771209E-01 -1.102100201852E-01 1.415722835174E-01 3.826773411096E-02 4.830568265444E-02 -1.869077192410E-01 -4.589129336657E+00 -2.841113827873E+00 -1.508122688539E+00 8.788781366831E-01 -1.738957885919E+00 -1.098622624908E+00 1.389320790505E+00 -5.974274304865E+00 -1.891489315664E+00 -2.187081937703E-01 -7.665692101575E-01 -7.514512007720E-01 7.842684331855E-01 4.629038481584E-01 -5.597063520472E-01 1.897507994429E-01 -5.243900016477E-01 -6.843077631050E-01 -6.715790512060E-01 -5.831152248221E-01 1.035407599112E+00 2.431548703582E-01 3.188228253396E-01 1.179206144866E+00 8.550742131024E-01 -5.412173954973E-01 -4.195592800216E-01 -8.116911741125E-03 9.903238617322E+00
 1.132520601287E+00 -9.257130589928E-02 3.703273467553E-01 -1.080732541193E+00 -1.166426745026E+00 -1.769418371932E+00 3.723362127979E-01 4.799873784548E-01 9.637937900920E-01 -2.861218739127E-01 -9.412829634779E-01 1.314599822117E+00 8.295291292250E-01 -1.086532745410E-01 -6.811172561838E-01 -1.347035096166E-01 2.068318489066E+00 -1.492195195433E-01 2.457569894130E-01 4.564806197669E-02 -3.153408840752E+00 1.430348086488E-01 -1.716286876674E+00 7.180548043496E-01 6.773009348479E-01 -9.542888905092E-01 -6.517956417401E-01 -6.123842507681E-01 -4.926061978499E-01 1.263355384991E+00 -5.854502290043E-02 -9.568296348639E-01 -5.398939323681E-01 -1.732184367783E+00 2.245863969626E-01 -2.778270132099E-01 -1.055247189275E+00 -1.040338359718E+00 6.085609045570E-01 2.304775197251E+00 1.583427088914E+00 2.976904946080E-02 1.131558141956E+00 -5.238937989535E-01 -6.726729188020E+00 -7.672111510170E+00 4.650029355662E+00 1.517439928303E+01
 -4.119277944055E+00 -1.455386644606E+00 4.378965925600E-02 -3.189043957626E-01 1.341357744749E+00 2.696592869882E+00 -2.405773418177E+00 1.866802208734E+00 -4.912690006134E+00 3.247527938378E-01 -1.385036544110E+00 -4.925240640274E-01 1.153359467924E+00 3.682942185393E-01 1.173369995833E+00 4.877543346469E-01 -8.687066632854E-01 -4.017896778545E-01 3.208306344025E-01 3.024493464250E-01 -1.374591278609E+00 1.973631928114E-01 -1.879970727805E+00 2.458520689479E-01 -9.844952952781E+00 -1.834547287038E+00 1.246442569469E+00 -2.978294844040E-02 1.479720239691E-01 -1.569069314393E+00 -3.445769649981E+00 -1.764159850391E+00 1.064833897495E+00 5.896120640468E-01 6.903363936996E-01 -1.914825417632E-01 -8.754802779855E-01 -1.791409662777E-01 -4.547254112502E-01 -9.854508579676E-01 6.543531509042E-01 1.391948371829E+00 7.543039353759E-01 3.124318291914E-01 7.326635133938E-01 -3.452577680013E-01 -1.368665705838E-01 -3.409984742332E-01 1.652093171964E+01
 -4.846289222381E+00 -1.289482771209E+00 -2.085195083471E+00 9.470943128664E-01 -3.697788623218E+00 -7.732009175929E+00 2.476259485154E-01 -1.923389871290E+00 1.868394107580E+00 5.632311405484E-01 2.645572026887E-01 1.156642262249E+00 7.969890069033E-01 -7.959769849420E-02 6.884598101137E-01 6.206564332108E-01 9.955250071877E-01 8.693491538563E-01 -4.956300404682E-01 6.271756820314E-01 -1.096371622621E-01 -2.550778330307E-01 -2.365295997891E-01 -6.393789847327E-01 -2.140269982637E-01 -1.361093256409E+00 -8.515625041447E-01 1.762190467383E-01 -3.901750272809E-01 -1.953821710880E+00 1.237624822625E+00 -3.392422451118E-01 6.174891493417E-01 -6.539354407059E-02 1.545139455834E+00 1.151405695235E-01 -6.307370367066E-01 -8.457871631661E-01 -5.888214134210E-01 -1.462080799776E+00 2.385416688993E+00 8.329733723091E-03 -7.163810158051E-01 8.995730520489E-02 5.237203210216E-01 7.578185594860E-01 1.997651068471E-01 -7.473949097471E-02 6.803076795051E-01 9.433780313290E+00
 -5.256010668379E-01 -1.324646294637E+00 -3.110262335844E-01 2.673347616074E+00 -3.074110671345E+00 -6.770660222397E+00 -4.400410096441E+00 7.205522403553E-01 -3.899982454325E+00 1.403074805551E-01 1.643752785222E+00 4.398285917975E-01 -8.021703076718E-01 -6.396679117357E-01 -1.455175402651E+00 3.590586690003E-01 -2.178833805429E-01 1.152414140041E+00 6.149180009450E-01 -9.321404992759E-02 3.628690322538E-01 -2.149900342926E+00 -6.790814350720E-01 7.764866265660E-01 1.117805276461E+00 -1.007344911825E+00 -1.404269705550E+00 9.577244236236E-01 9.596164231932E-02 1.733873775734E+00 6.572608431259E-01 -8.244957759105E-02 -8.716414204230E-02 -4.647945749947E-02 5.102368811213E-01 -1.698887036982E+00 -4.658803617551E-01 -1.840611126130E+00 -1.188234740051E+00 2.639855204767E+00 2.982564099329E-01 3.928749518055E-01 -6.257127326994E-02 5.999619874223E-01 -1.097611093359E-01 1.043978790904E+00 8.460170380656E-01 -1.154349755343E+00 1.259742457414E+00 6.887432336506E+00 1.348936127361E+01
 -1.094685708604E+01 5.642128386758E+00 -3.622203481179E+00 -5.955431158646E+00 -1.045806689355E+00 4.932165969626E+00 2.583606381019E+00 -6.090218122564E+00 -2.997163708383E+00 7.126299023183E-02 3.846332293032E+00 -2.422033645399E-01 -1.945902126294E+00 4.590577808992E-01 -1.531463113722E+00 -3.178976737069E+00 -8.653576681946E+00 -8.072034659371E+00 -6.206374208314E-01 8.158613305394E-01 2.187251232733E+00 3.016633112506E+00 5.352383088695E-01 6.637214827432E-01 -8.375321199545E-01 -3.934943841608E+00 7.677756665176E-02 6.658952794030E-01 -2.545627810043E-01 1.967655552856E-01 -2.560004841346E+00 -4.146123117684E+00 -1.146476387713E+00 -2.133975187764E-01 4.429872542401E+00 3.495842066217E+00 9.539907105542E-02 7.359558706991E+00 -7.070840392467E-01 2.633773566881E+00 8.235383722725E-01 -4.234267815041E+00 -1.330850269803E+00 -5.099180985811E-01 2.076522212918E+00 1.224864216504E+00 -1.471298275403E+00 -8.691969468292E-01 5.577428218034E-01 2.575577051480E+00 3.057222016592E-01 2.357331455829E+01
 1.497343202464E+01 -5.377123933435E+00 6.191677563465E+00 -1.604521117312E+00 3.312119521673E-01 7.709422651923E+00 -9.521718172643E-01 2.448595213861E+00 4.926665325185E-01 -1.045455961559E+00 7.662901307929E-01 -3.734871118623E-01 -2.974734137247E-01 -1.797377269132E+00 -2.236677414434E+00 -7.644496419450E+00 -1.216868521603E+01 -1.101203394704E+01 2.000158699381E+00 5.581267530169E-01 2.317450857894E+00 1.345239192390E+00 -8.119804613467E-01 4.270327839344E-01 6.882445094711E-01 7.574972140880E-01 5.698024130133E-01 -3.961281050339E-01 8.111414390582E-01 9.902782148589E-01 -9.580444944541E-01 2.092881851932E+00 2.790434394517E+00 1.327954487264E-01 -2.371588900805E+00 -2.955906634699E+00 5.499959911071E-01 -9.535061673405E+00 3.344522921362E-01 1.127516968403E-01 -8.033153418562E-01 4.573758741329E+00 2.026641537591E+00 1.429297779976E+00 9.871466395541E-01 -2.359798056111E+00 1.306356178014E+00 1.007964995526E-01 -1.677262392617E+00 -5.335821632408E+00 -1.204553993374E+00 -1.704954664242E+00 3.113355805388E+01
 -6.509649122277E+00 6.973961377190E+00 -1.419331197682E+00 2.607002493591E+00 6.155782051190E+00 -8.194856495528E+00 2.480061740451E+00 -1.205431768926E+00 1.681011787952E+00 -9.751954156975E-01 3.926710336985E+00 -1.009182778070E+00 -4.021450725830E-01 3.990954429643E-01 -8.730884520582E-01 -6.544143943768E+00 -1.336529063011E+01 -9.312449784774E+00 2.784991104845E+00 -4.790892140291E-02 -1.663688598485E+00 2.228596478265E+00 -3.086634855399E+00 3.236538640505E+00 -1.133398754966E+00 -2.423979032246E+00 -1.366064214049E-01 3.128343521492E-01 -4.176915410692E-01 -1.671485925937E+00 2.552225572208E+00 5.420625731413E-01 -2.193220967594E+00 1.330529602755E+00 -1.481643303715E+00 -1.602869852852E+00 4.976468458001E-01 5.010838990431E+00 -2.360816670709E+00 -3.140970592120E+00 -1.234706429916E+00 7.936983691864E-02 -2.996785184474E+00 9.557963200264E-02 -2.009924918618E+00 -1.116388942667E+00 6.443518017370E-01 -1.244080036649E-01 7.149095369971E-01 -8.757857905579E-01 -1.706719443470E+00 5.702796152958E+00 -1.852922030665E+00 2.661049578807E+01