#BIOSYM hessian 1
#COMMENT: Materials Studio generated
@Type: Hessian
@Units
 distance: 	A
 energy: 	Kcal/Mol
#header
@natom 19

#label
Li1     Li2     Li3     Li4     Li5     Li6     Li7     Li8     Li9     Li10    Li11    Li12    Li13    Li14    Li15    Li15    Li15    Li10    Li11    

#element
Li Li Li Li Li Li Li Li Li Li Li Li Li Li Li Li Li Li Li 

#matrix
57        
 7.965422671058e+002
 2.318796832807e+002 1.540654734367e+003
 9.570201203514e+001 -6.595152397088e+002 1.633836856719e+003
 -1.771842429030e+000 -1.742174036322e+001 3.706680414615e+001 9.755834787374e+002
 2.310372170394e+001 1.865655265132e+001 -4.862713002689e+001 1.453202800323e+002 8.074772316330e+002
 -1.593591308198e+001 4.826006523550e+001 -5.013777040299e+001 -1.792892290732e+002 2.876015916872e+002 1.027135228909e+003
 -3.471416142118e+001 5.216228758717e+001 -8.855755009623e+001 1.739733311519e+001 -4.109721160264e+001 -3.792402766193e+001 1.670176013297e+003
 -4.102640852909e+000 -4.094700529753e+001 1.021976764619e+002 6.317024978477e+000 -2.075113417497e-001 4.219053500293e+001 -2.805778992928e+002 7.963506543702e+002
 -3.497698453714e+001 1.218851415609e+002 -2.100920085299e+002 9.251118990217e+000 -6.953720857532e+001 -5.578594544871e+001 6.166382448955e+002 -4.815034003851e+002 1.718768738418e+003
 2.532669799086e+001 -1.426828504383e+001 -3.205402838217e+001 -1.053424202495e+001 1.167525497048e+001 -5.245697197197e+000 -2.769336690531e+001 -1.753873995717e+001 -5.882166834102e+000 8.269801146203e+002
 6.179732949714e+000 -1.331040739092e+002 1.586257199252e+002 -4.048289378586e+000 3.303487382341e+001 3.468315926258e+001 9.012026438434e+001 -7.353296090140e+001 1.873250450138e+002 2.660000337114e+002 1.625080075302e+003
 2.785184544266e+001 -1.566711197223e+002 -4.404474525759e+002 -4.766280627157e+000 5.908476579063e+001 4.391009368257e+001 1.470871196835e+002 -1.143975973416e+002 2.289317985413e+002 -8.661137101965e+001 6.713410462164e+002 1.662745304725e+003
 -1.578814770002e+001 -5.589895784575e+000 1.896844321409e+001 -1.726160689838e+001 -2.856221656937e+001 9.192072454150e+000 2.510782865365e+001 -3.212188459692e+000 4.534301718556e+001 -5.275997941148e+000 -2.217701540669e+001 -4.963743626486e+001 9.417027193269e+002
 1.434938890698e+001 1.792947301205e+001 -5.566629111996e+001 -1.886625343650e+001 1.295690064901e+001 -6.096708095724e+000 -3.817115357386e+001 -6.995072712281e+000 -4.127308501619e+001 2.951532984681e+001 3.015191727277e+001 4.946355867776e+001 1.159892343333e+002 8.111273779092e+002
 8.674218077907e+000 -4.106768948792e+001 4.392853445591e+001 8.647296475773e+000 7.240469790914e+000 -6.259356767193e+002 2.503738546620e+001 -3.229204587003e+001 5.604243164300e+001 2.441587505979e+001 -4.367285855667e+001 -4.849981397653e+001 1.718080089084e+002 -2.879875128005e+002 1.046514752380e+003
 -1.678160338534e+001 7.769844165505e+001 -1.372187640548e+002 2.074532297028e+001 -2.009119350873e+001 -2.969282616329e+001 -9.406258829608e+001 6.979398189527e+001 -1.305314248752e+002 -1.748372496685e+001 4.661168148586e+001 9.360210467711e+001 1.133638728615e+001 -2.945891041784e+001 4.036281664102e+001 1.600392406683e+003
 -1.761809697256e+001 -6.153470183311e+001 1.166245093358e+002 -1.182967537975e+001 -9.595505704046e+000 2.852930802471e+001 8.810844286061e+001 -1.704016007913e+001 1.303161396812e+002 -8.193108175567e+000 -6.108017383249e+001 -1.101041063025e+002 1.964561663252e+001 -4.730987314332e+000 -4.564577662026e+001 -2.836892797255e+002 8.349570163872e+002
 1.713701254420e+001 -1.686006714910e+002 2.204183251119e+002 -3.370444313621e+001 4.386806248729e+001 5.281405572415e+001 1.395695902072e+002 -1.188226925664e+002 -4.163690948254e+002 2.711523440876e+001 -1.312808764311e+002 -2.078959082464e+002 -1.970348323185e+001 5.978845922789e+001 -6.125747384560e+001 -5.387073813037e+002 4.568088884511e+002 1.682216974108e+003
 -2.323011145247e+002 3.670159307219e+001 -1.701498919958e+002 -1.104498861556e+002 1.338999959050e+002 8.316153271690e+001 -8.301183957154e+001 -1.094831431128e+002 6.937572614384e+001 -2.227743548200e+002 3.391048184908e+001 1.649415071326e+002 -8.719787099477e+001 1.365244857476e+002 -8.569382995585e+001 -7.833540769019e+001 -1.059283795726e+002 -6.604890521244e+001 4.075915875688e+003
 -1.948870623983e+001 -4.602371993819e+001 2.177238242660e+001 1.279003775162e+002 -2.476398630202e+002 -1.316481019882e+002 -4.837842285274e+001 -2.120116843804e+002 1.870919421215e+002 -1.163765124257e+001 -3.578929950201e+001 -4.002324822011e+001 1.414528528835e+002 -2.272710474152e+002 1.402916505656e+002 -4.948403129533e+001 -1.961659844987e+002 -1.726462378499e+002 -1.517024179629e+002 4.202731403246e+003
 -1.554782839539e+002 1.600261099895e+001 -1.063226060967e+002 6.954240755638e+001 -1.293817820037e+002 -7.351562590254e+001 6.936928249352e+001 1.402807119424e+002 -1.093552270183e+002 1.534843334521e+002 -1.040647699676e+001 -1.083231983985e+002 -7.074130749002e+001 1.259937225679e+002 -7.639511681124e+001 -7.399399341235e+001 -1.361746600184e+002 -1.000001133425e+002 -1.109659292037e+001 1.679255149969e+000 6.703187461804e+002
 8.025514708667e+000 2.301468974969e+000 -1.023319014055e+001 4.491708421047e-001 1.047480239712e+001 -7.063875030661e-001 -9.978790883837e+000 -5.053203749521e+000 -1.021725446656e+001 -5.648617581393e+001 1.402537717821e+001 -4.274502851045e+001 -2.371433145266e+001 3.423392061667e+001 2.726214116780e+001 -1.683464459465e+001 -3.573645973506e+001 1.854184723009e+001 -4.974258006399e+000 6.367302012534e+000 -3.646066634035e+000 1.949997847995e+002
 -8.099886290995e+000 2.243707324789e-001 8.925495896795e+000 7.394340800406e+000 -8.689130529242e+000 -1.556309540501e+000 1.123912871826e+001 6.503685820336e+000 5.049613994645e+000 -1.146520976755e+001 -6.182593100387e+000 1.269440856582e+001 3.150619789516e+001 -5.956472846178e+001 -4.210847258692e+001 -1.564767278376e+001 -4.452030381196e+001 4.832287190115e+001 -2.254056066247e-001 -8.832037852406e+000 3.394351186954e+000 1.734663024136e+001 1.613558297941e+002
 -1.841605057444e+001 -3.067939601314e+000 1.778296881515e+001 8.905537043877e+000 -1.575113678076e+001 -2.125345123478e+000 2.423137384467e+001 1.363766390886e+001 1.322055662997e+001 -6.700011616495e+001 5.662082398095e-001 -1.725155487929e+001 3.710923105512e+001 -6.636652247968e+001 -3.288722346956e+001 2.573722039617e+001 6.142793325535e+001 -1.795463456108e+001 -1.447903873978e+001 9.978193244610e+000 -6.216069879110e+001 -2.071029120655e+001 2.654092716942e+001 2.151887140730e+002
 -5.932794174189e+001 1.038948590936e+001 4.486599596687e+001 -2.254609814598e+001 2.618398100690e+001 -2.306156011123e+001 -1.799433678120e+001 -2.979189287284e+001 -1.637881953007e+001 2.707638920277e+000 -2.068315913434e-001 1.972907923783e+000 4.414723002267e-001 6.638623075802e+000 -1.991733693701e+000 -5.131096655792e+000 -9.086701944550e-001 8.303883003759e+000 -2.029808933756e+000 6.434816750108e+000 4.813597193987e+000 -1.737772677433e-001 -1.028505550050e+000 -3.634080087185e+000 1.651575535699e+002
 -6.351999774356e+000 -4.388149390765e+000 -1.626890332301e+001 3.143360848957e+001 -5.150389365007e+001 3.831555789747e+001 -1.341075039659e+001 -4.549303205636e+001 -4.667846650369e+001 -3.434829428533e+000 1.379889943792e+000 -1.408230502916e+000 5.804277190277e+000 -8.665190766158e+000 2.792565981852e+000 5.828993865161e+000 4.701777431668e+000 -6.251437255941e+000 5.380706351103e-001 -3.202181952618e+000 -5.664450093611e+000 -8.957866150943e-001 1.091324077914e+000 6.267127881236e+000 1.341914455170e+001 1.464847125637e+002
 6.019132844865e+001 -8.560160919162e+000 -1.913928212261e+001 -3.277170671304e+001 5.881372920400e+001 -2.806510281402e+001 -3.317447787482e+001 -5.629659047045e+001 -1.475716498469e+001 1.917335568685e+001 1.323166961630e+001 1.585972201276e+001 -9.587890339678e+000 1.737094356150e+001 1.071314841010e+000 -1.189365542180e+001 -1.234026395130e+001 1.470756285867e+001 1.267033447068e+001 -1.184632650276e+001 -7.033808478010e+001 6.379962215001e+000 -8.254776568623e+000 -1.609384449208e+001 1.097618609073e+001 -1.975251554611e+001 2.077624934195e+002
 -7.808132733833e+001 -2.614961702579e+001 1.241127801964e+002 -3.780093834141e+002 1.765793806094e+002 2.830630452657e+002 1.294776566207e+002 -1.194398431015e+002 2.448880138359e+002 -1.058108358608e+002 -3.086207617162e+001 -1.153365494239e+002 -4.426378899487e+002 1.676665384950e+002 -2.908224098038e+002 1.241377894965e+002 -1.413033846060e+002 -2.470232811366e+002 -4.352315589077e+002 -1.005890344795e+003 2.113969909550e+001 2.183502327625e+001 -2.663494549220e+001 -5.568603949382e+001 1.247491004882e+001 -2.620858217548e+001 5.627237934374e+001 4.813284960867e+003
 1.997107164356e+002 -2.115358309925e+002 2.039301714249e+002 5.500335209752e+001 2.975279789995e+001 -3.513484153547e+001 -2.100428368062e+001 -1.364055197239e+001 -1.251133154754e+001 2.028707415035e+002 -2.335470097674e+002 -2.079809542090e+002 4.989064067436e+001 2.531411786183e+001 2.994054487344e+001 -1.960324303133e+001 -2.424695831890e+001 7.326260793100e+000 -8.743934932317e+002 -1.644743631799e+003 3.300593372145e+001 4.558891140305e+000 -7.917606137341e+000 -3.010221811881e+001 5.525497821662e+000 -1.155232573584e+001 2.759442713342e+001 5.447980620665e+002 2.921650045794e+003
 -1.113946993579e+002 1.714040222920e+002 -1.714905640674e+002 2.079653984450e+002 -3.652152396649e+001 -1.540065825919e+002 2.378170168154e+001 -2.204151164503e+000 7.777329407296e+000 1.161385432046e+002 -2.137082833243e+002 -2.172608798217e+002 -2.289867068778e+002 4.841988089707e+001 -1.598948567373e+002 8.270976549408e-001 -2.717981926953e+001 -2.314698768403e+001 1.916567677662e+001 2.651189234772e+001 -2.615308715575e+001 1.966548196343e+000 -1.952427794851e+000 -4.250425980264e+001 -7.188433015319e-001 -4.334645685083e+000 -3.923409158502e+001 1.037038942261e+001 1.245551982702e+002 4.034885058755e+003
 -4.026329237402e+001 1.122048106043e+002 -1.652276396535e+002 3.461830185816e+001 -1.881431963921e+002 -1.188656334555e+002 -1.371850621546e+002 2.309871772211e+002 -2.919292173534e+002 -3.330628527840e+001 1.180271166969e+002 1.747542662377e+002 2.882203571055e+001 -2.010793436362e+002 1.326705113439e+002 -1.449075697846e+002 2.502950894994e+002 2.935937401275e+002 -2.173095575791e+003 1.336141822720e+002 -1.792664765039e+001 -1.474699437724e+001 2.658742483998e+001 6.341982510039e+001 -1.085355844482e+001 2.175615017548e+001 -5.624346746702e+001 1.274618838513e+002 -4.677699078260e+001 2.668186365254e+001 3.931524130377e+003
 2.311243094599e+001 1.612629690560e+002 -2.831475268298e+002 -1.000029181860e+002 -3.767927938266e+002 -2.599293623593e+002 -9.962654271376e+001 -2.060946934018e+002 -6.348623389829e+001 5.433597208863e+001 2.028359104687e+002 2.650922952435e+002 -5.162722140202e+001 -3.473464084246e+002 2.912690554727e+002 -6.836346313808e+001 -1.946910079979e+002 5.936101930243e+001 -6.168237041366e+000 1.318799779524e+002 6.622779005710e+000 -1.095267716937e+001 2.865245393491e+000 2.902637481656e+000 -1.183464317404e+000 1.061527095040e+001 -6.401685333660e+000 3.001595232489e+002 -1.408055946003e+001 3.110782390358e+001 1.308053915271e+003 4.612462473962e+003
 -3.057629914974e+000 -2.503508184887e+001 2.367734023083e+001 -1.022764199545e+002 -2.052787160744e+002 -1.377186314222e+002 -8.867659047354e+001 1.739390254916e+002 -1.499853657657e+002 3.053989375968e+001 -2.105643051567e+001 -5.355812653747e+001 7.481616911420e+001 2.407623559717e+002 -1.745292783484e+002 1.065280473261e+002 -2.175631604643e+002 -2.310645325444e+002 -1.045477958621e+001 2.150107939315e+000 -2.337726151031e+001 -7.721264722172e+000 -1.526205750651e+001 -5.890118351076e+001 1.437863103863e+001 -2.645072168932e+000 -3.329140156309e+001 -2.391194164887e+001 1.021596683112e+001 -1.698552309949e+001 -2.303812012889e+002 3.181202955809e+001 4.050187988662e+003
 -1.442911345246e+002 -1.927194613223e+002 -1.664937197779e+002 -7.039781079330e+000 1.179240730989e+001 7.363414680013e+000 -2.728349699711e+002 -1.380742044249e+002 2.796164229195e+002 -1.479619521916e+002 -1.906258619252e+002 1.655316742079e+002 -9.393856936654e+000 2.312667348618e+001 -6.883718367478e-001 -2.942957287392e+002 -1.416335167599e+002 -2.785764686465e+002 -5.491871001927e+002 9.223707323598e+002 1.852939448155e+001 1.759819910519e+001 -2.420053221741e+001 -2.930620442191e+001 1.143606090718e+001 -1.560294412460e+001 2.660100033522e+001 -8.282745774277e+001 1.220937638533e+000 -7.094460126831e+000 3.995898090080e+001 1.630644724899e+002 1.429398077056e+000 2.126498056206e+003
 -1.918942388197e+002 -7.168727946421e+001 -2.192379540428e+002 9.717633164746e+000 -2.369992137016e+001 -1.948044150414e+001 -1.102231460289e+002 6.060301371028e+001 -8.034659686369e+000 -2.078151965806e+002 -1.041088007186e+002 2.444295160335e+002 1.285432616380e+001 -4.190097652604e+001 9.487735174740e+000 -1.271987037654e+002 5.582028051574e+001 -1.235006113874e+001 9.183141631952e+002 -1.578161671346e+003 -3.261566408024e+001 -3.114319972828e+001 4.027721154975e+001 4.922258288636e+001 -2.088845847917e+001 2.711370147973e+001 -4.473010250740e+001 1.635276518436e+002 -3.375737095360e+001 1.077634932509e+001 -9.116152124824e+001 -2.593403860786e+002 4.546967727770e-001 -1.292094447931e+003 3.532287345172e+003
 -1.642066255149e+002 -1.961794870212e+002 -1.657976676500e+002 4.911228723618e+000 2.314112275380e+000 -2.594998590578e+000 2.527518707191e+002 4.285183324497e+001 -1.604280549051e+002 1.733025614920e+002 2.091379452989e+002 -1.703677898242e+002 -3.250013328812e+000 1.486160992978e+000 1.058795765213e+000 -2.580573527284e+002 -4.691516104184e+001 -1.706238019595e+002 1.839183413093e+001 -3.825068932913e+001 2.007399509630e+001 1.238357212446e+001 -1.987144873304e+001 -1.507453595703e+001 -1.255466097118e+001 2.259188361125e+001 -1.407043041491e+001 -5.583529766544e+000 -8.882819465877e-001 5.768107772015e+000 5.963533767539e+000 1.372588382871e+000 1.246299094613e+000 9.226242218703e+000 -1.702046873438e+001 7.186371423104e+002
 5.056643266198e+000 -8.067578230320e+001 1.174552863003e+002 -1.680903902293e+002 -1.382008497638e+002 6.905592930886e+001 -7.535660674559e+001 1.082127648011e+002 1.476823772220e+002 9.573640100253e+000 -7.728028105110e+001 -1.264011129835e+002 -2.672134016663e+001 3.730975394937e+001 -4.614773041515e+001 8.274346641300e+001 -4.439631969487e+001 -1.833952163328e+002 -3.972536115122e+000 1.703070058160e+001 -1.181994243465e+001 -5.588605572665e+000 -2.094393443418e+000 -1.243895086675e+001 -5.274053996076e+001 5.704233145949e+000 -2.729373960381e+001 -1.451785996025e+002 -1.937455186749e+001 -2.122927236718e+001 -5.259619842273e+002 8.220609727084e+001 1.163758571893e+003 -2.549425473124e+001 4.938164913028e+001 2.092763847571e+000 1.010635589563e+003
 8.007063967777e-001 3.497690420986e+001 -7.264428289243e+001 -1.790538937636e+002 -1.592167636247e+002 1.455349576809e+001 1.154713084628e+002 -1.556375934672e+002 -5.817293756780e+001 1.340550475015e+001 4.332089438003e+001 5.679516488509e+001 7.260223359760e+000 9.070191506255e+000 2.283100293789e+001 -4.924716480043e+001 2.169097023855e+001 1.194865191652e+002 8.378130508250e+000 1.779666363072e+001 1.448407093465e-001 1.492472947427e+000 -7.590704855819e+000 -7.746647374675e+000 5.182167738687e+000 -1.232255720005e+000 1.191451566108e+001 6.222057151727e+001 1.634101731422e+000 -2.446140421920e+000 2.510561910694e+001 3.286563810871e+000 -1.008290783503e+002 3.445543185487e+001 -5.956577715049e+001 -7.108002054459e+000 -1.435731280533e+002 7.757123172186e+002
 -3.616610474646e+001 1.195469495778e+002 -1.805661026766e+002 6.841220856316e+001 -6.935361410622e+000 -4.743639585061e+001 -8.439811532531e+001 8.190330473278e+001 -1.730128045449e+002 -3.568660927287e+001 1.108882100742e+002 1.779537715843e+002 6.235093200571e+001 -6.198584004272e+001 5.405972392117e+001 -2.680006357837e+001 5.784798681926e+001 1.809889132713e+002 2.582940534636e+001 1.294421646910e+001 1.508173795035e+001 -2.329158591459e+000 1.039497524178e+001 4.186777471402e+001 -3.213243199997e+001 7.842401348823e+000 -1.409479779004e+001 1.473022507466e+002 -1.897274640929e+001 2.232218913279e+001 8.124927754999e+002 -2.397205700947e+002 -1.665238894728e+003 2.902124631585e+001 -6.281603887476e+001 -8.288238349313e+000 -1.082249558142e+003 4.513591569150e+002 1.954631966680e+003
 -8.903119650189e+000 5.419497174463e+001 -5.221402808251e+001 9.104364594303e+000 -1.518690787072e+001 -2.062046274675e+001 -4.777218587717e+001 4.293404229552e+001 -5.843692375089e+001 -8.243691183074e+000 5.415727390299e+001 5.410373699706e+001 8.204617602260e+000 -1.856472779760e+001 1.852245961337e+001 -4.548601192138e+001 4.360300426210e+001 5.178548089283e+001 -7.258088922935e+000 2.105084916876e+001 -2.953112975544e+000 -8.096658278110e+000 1.113372246075e+001 1.266175710541e+001 -4.956485211400e+000 7.056160637392e+000 -1.137568994497e+001 8.571769970360e+001 -4.204886295801e+000 8.743271160779e+000 -5.392943609151e+001 -1.043005308300e+002 6.966857473097e+000 -5.239621869453e+002 8.865922617765e+002 -2.504173545138e+001 3.603387494583e+001 -2.469920544382e+001 -5.467367146164e+001 5.365738109387e+002
 1.730710535221e+001 -1.000745965838e+002 8.919513462046e+001 -1.571360277765e+001 2.818693100350e+001 3.633443163349e+001 7.428295680512e+001 -7.341547066906e+001 1.048010465073e+002 1.613874996680e+001 -9.816723919040e+001 -9.209017282949e+001 -1.593973095842e+001 3.340282338970e+001 -3.264692663683e+001 7.212830701355e+001 -7.568568438266e+001 -9.408386931530e+001 8.355613542486e+000 -3.084963256458e+001 5.173751357357e+000 1.473534478908e+001 -2.003718457518e+001 -2.308158729153e+001 8.847303748221e+000 -1.284853056685e+001 2.072154255936e+001 -1.463704359845e+002 7.787783870348e+000 -1.420699594505e+001 9.349465909864e+001 1.802908002914e+002 -1.281702505550e+001 9.190518907131e+002 -1.554997435486e+003 4.366427420315e+001 -6.462517430136e+001 4.344367079797e+001 9.637410343323e+001 -9.242048961140e+002 1.620271911819e+003
 -1.074137629489e+000 5.220546953496e-001 -4.685862406250e+000 -1.138783995095e-001 -1.689930924555e+000 -1.111472304665e+000 -2.493780587891e-001 9.654877333963e-001 -3.622620574357e+000 2.405519114922e-001 5.730061920626e+000 1.664032518909e+000 1.519961605707e+000 -8.559065199413e-001 1.155320377651e+000 -4.667439965249e+000 3.814520654404e+000 1.804220983238e+000 2.406782297007e-001 1.982967811877e+000 -1.562646361312e-001 -6.023733204064e-001 5.977004553484e-001 7.682750365988e-001 -2.565881418721e-001 4.688670368223e-001 -7.167390139161e-001 3.528505386157e+000 -1.171036392211e+000 -3.319463289077e-001 -2.814089976439e+000 -3.445419301232e+000 1.665731649381e+000 -3.073110465478e+001 5.220094835355e+001 -1.443589818412e+000 2.663106828645e+000 -2.708064422500e-001 -3.317881728426e+000 3.098945098813e+001 -5.404191878498e+001 6.623400330635e+000
 -3.457919733632e+001 1.028427774341e+002 -3.939359038234e+000 -2.875032501588e+002 -8.693349415077e+001 -4.309476235625e+001 -2.302329972805e+000 9.845555247487e+000 -1.083785976906e+001 -1.030048804737e+001 -2.295885060135e+000 -1.212994048250e+001 2.328109312692e+000 -2.538910935027e+001 -1.574376721772e+000 -8.070462015660e+000 9.601652254219e+000 1.148062480138e+001 7.313909562939e+000 -7.213620546189e+000 8.956310741757e+000 -4.001818800890e+000 2.181817583590e+000 8.485024171151e+000 -1.094077589438e+001 -2.407711356177e+001 5.950354379501e+000 -8.935762922427e+001 -2.026635375306e+002 -4.528212571177e+002 -9.896327615202e+000 -1.753946290569e+001 9.949580123627e+000 -8.180969013576e+000 1.120340276473e+001 5.948146885045e-001 5.505163824203e+000 -3.921532078202e+000 -8.679178977259e+000 1.578745693054e-001 -8.488783997005e-001 1.337071314370e-001 6.494649593115e+002
 9.616478947188e+001 -2.162537910165e+002 -1.318910506251e+002 -5.020317387090e+001 -1.216434132015e+001 -4.783020096381e+001 -7.509353293235e+001 3.612234992128e+001 -1.333728717114e+002 1.602930710103e+001 9.955741093913e+001 1.863915766664e+002 -1.086989221276e+001 -2.716710587646e+001 5.036275544214e+001 -6.328779394333e+001 2.877139150687e+001 1.235507613770e+002 1.768510568420e+000 -1.578506651245e+001 -8.916416555705e-001 6.228500771051e+000 -5.877065377785e+000 -6.983504462488e-001 -2.282045690646e+001 -4.224882423849e+001 3.390290017149e+001 -1.426808947093e+002 -4.170346893648e+002 -1.026389333224e+003 -1.008385824699e+002 -1.239161484999e+002 -1.323894925136e+000 3.349060209292e+001 -6.826159526820e+001 2.163680726808e-001 5.702069520167e+001 -3.479886913997e+001 -9.606969116309e+001 -3.685863475791e+001 6.623799513787e+001 -2.190482139564e+000 6.832144086172e+001 9.752275231466e+002
 -1.102091695482e+001 8.584338601224e+001 -1.411716785937e+002 -2.070498835442e+001 -4.290880907333e+001 -3.818209364657e+001 -8.518514289523e+001 7.093534018177e+001 -1.683945532201e+002 -1.244457730895e+001 5.406960611629e+001 1.545437345436e+002 1.376131869052e+000 -6.972377055582e+001 5.283816718469e+001 -6.680042944863e+001 6.997686459952e+001 1.532628361462e+002 -2.525536896624e+001 -1.417716977661e+001 6.093510629403e+000 8.701748225743e-001 2.705403583097e+000 2.702605289811e+001 7.132648991557e+000 2.925621018743e+001 -4.597984313717e+000 -2.766620875745e+002 -8.075389571313e+002 -1.721932285288e+003 -8.318057999931e+001 -1.518337580946e+002 6.818472416833e+000 3.621276336262e+001 -7.077801731107e+001 -5.531061601337e+000 9.168455041286e+001 -4.449449733777e+001 -1.166364137960e+002 -5.112268714746e+001 8.995956021020e+001 -2.381075327317e+000 2.117367371277e+002 1.081735290353e+003 1.934303120179e+003
 -4.834380025960e+000 -4.592122701918e+000 1.901288189534e+001 4.237087310148e+000 -1.616954652202e+001 -2.949328167441e+000 1.341568347850e-001 3.288719541948e+000 -4.069180652733e+000 -3.608400153272e+001 9.745552290736e+001 -4.474822443439e-001 -2.396219167575e+002 -7.543382449011e+001 4.335073429878e+001 1.086806048767e+000 -3.106218109117e-002 -1.048660611349e+000 5.215992266716e+000 -6.548054901138e+000 -9.205884283179e+000 -1.404792921344e+001 -2.638844288339e+001 -9.687035197778e+000 -2.825448604181e+000 1.364353336407e+000 -5.908173895064e+000 -8.740661329463e+001 -1.663986013144e+002 4.036470566748e+002 2.634965435729e+000 -1.805972660876e+000 -9.624217412071e+000 -7.678184257857e+000 1.261125727775e+001 -2.760759435577e+000 4.117599197506e+000 -7.221498217821e+000 -2.566050768831e+000 2.487281455291e+000 -4.246198025920e+000 -1.612683660469e-001 -2.191820057366e+000 -1.164032232403e+001 -4.207058535820e+000 5.743278998593e+002
 1.504458919740e+001 7.968378931910e+001 -1.649284829666e+002 1.952327389240e+000 -2.792344490521e+001 -4.169367286482e+001 -6.524043440082e+001 2.901670453770e+001 -1.114342680899e+002 9.594232199639e+001 -2.470095276398e+002 1.242872355539e+002 -5.713720497879e+001 -1.491251728071e+001 4.340793024614e+001 -5.900211258520e+001 3.212979319354e+001 1.118992710458e+002 2.281035264229e+001 -8.207305539865e+000 -8.688457786468e+000 -2.283929397746e+001 -5.464913397827e+001 -3.673226604415e+001 2.847936505150e+000 -6.971464477575e+000 3.187772506157e-001 -1.384490641575e+002 -3.332042406252e+002 9.153013193217e+002 -9.207146223057e+001 -7.373508507065e+001 3.271786406341e+001 2.551048853056e+001 -5.722391320556e+001 -1.285312293205e+000 5.852993153812e+001 -1.664121298216e+001 -9.782700404910e+001 -3.246049647134e+001 5.821319920384e+001 -1.706139541910e+000 -1.561232182688e+001 -1.082603826910e+002 -1.289509449797e+002 3.274890141114e+001 9.133910290408e+002
 1.739420935664e+001 -2.520774115592e+001 1.225463938280e+002 -5.170415379100e+000 6.815570609977e+001 4.103275205011e+001 5.763269163745e+001 -5.458907875099e+001 1.298584705908e+002 5.421552713018e+000 -6.860859873123e+001 -1.132434702533e+002 3.008931304879e+001 4.182130237425e+001 -3.660431331742e+001 6.627425229545e+001 -6.626179173563e+001 -1.405369930160e+002 1.036179983284e+001 2.241293715439e+001 1.576632508312e+001 -1.028601221756e+001 -2.729709655496e+001 -6.499721356172e+000 1.021372325525e+000 -8.880415813202e-001 2.463464037700e+001 2.582777636112e+002 6.656690415265e+002 -1.487118867873e+003 6.158114285191e+001 9.802850310242e+001 -1.762457749175e+001 -2.136302519841e+001 4.853386609666e+001 -1.084714496944e+001 -8.041525460486e+001 3.081706564073e+001 1.054963865085e+002 4.129099431295e+001 -7.318810579444e+001 2.053992142582e+000 2.251191108521e+000 1.103500978868e+002 2.192399988799e+001 -1.603706115730e+002 -9.453385800797e+002 1.708436275168e+003
 -1.286546822956e+001 -5.683930152910e+001 1.005995084725e+002 -3.527210186087e+001 7.477405376256e+000 4.136617710267e+001 8.698336075213e+001 -3.024143583225e+001 1.606826727595e+002 -8.142041299180e+000 -7.094600180379e+001 -1.080889946531e+002 -1.181267491720e+002 -1.336768473140e+002 -7.117314378902e+001 -1.088600576011e+002 1.524406512526e+002 -1.231589480014e+002 2.941149562160e+000 1.623885243565e+001 1.372373859002e+001 -8.086862925560e+001 8.112494269908e+000 4.581765132684e+001 -3.523932519519e+000 3.605625789723e+000 -1.810927092874e+000 -1.341066257047e+002 -2.120817778269e+001 -1.520484580032e+001 -3.494557660129e+002 4.083702672257e+001 -9.642540183043e+002 -3.356227579248e+001 5.833029260282e+001 -1.615457093892e+000 -1.072721960019e+002 4.856968635950e+001 1.330960554701e+002 3.171314603947e+001 -5.743065323049e+001 2.116590211579e+000 1.219069472747e+001 3.474008844586e+001 6.899927741842e+001 -9.166698048389e-003 3.887746463928e+001 -6.329420686741e+001 8.643212598959e+002
 1.060646363734e+001 2.512603881104e+001 -4.887825333260e+001 1.883924621542e+000 1.059167034849e+001 -1.806862282239e+001 -5.370761171449e+001 1.023766802198e+001 -1.055273381004e+002 6.431249134935e+000 3.281636224453e+001 5.402833883697e+001 -1.577874774710e+002 -1.353944134986e+002 -1.828742135658e+001 1.502921299408e+002 -1.835419773911e+002 6.644640189947e+001 1.641998238274e+000 -6.897747860762e+000 -1.267508151856e+000 5.558340274422e+000 -3.523694512604e+000 -1.173510349994e+001 -2.010061582117e-001 -2.872131399772e+000 7.766232328600e+000 6.768530911202e+001 1.181107058083e+001 1.168432117768e+001 -2.048887308543e+000 -1.306923528250e+001 7.462544991037e+001 2.063341540755e+001 -3.440978660809e+001 5.326881699135e+000 3.746179933408e+001 -2.368591417914e+001 -6.179324715404e+001 -1.634227787701e+001 3.007506289569e+001 -1.344539823011e+000 -6.431107136729e+000 -8.893810118205e+000 -2.878839645946e+001 2.062181436855e+000 -1.666790947652e+001 3.023789602622e+001 -1.285641462713e+002 6.275863840070e+002
 1.687170146626e+001 -8.416538680697e+001 1.425884331279e+002 -5.521577336991e+001 3.794791244506e+001 4.164907503624e+001 2.463697769974e+001 -3.253607796296e+001 1.425816333138e+002 1.579050881913e+001 -1.014371401683e+002 -1.535286894148e+002 -5.233242118272e+001 -1.377006830242e+001 -4.120657745392e+001 6.217964236700e+001 -4.412549980665e+001 -1.373323464356e+002 -2.755858026994e+001 -9.409545487894e+000 1.478959860944e+001 3.562103152516e+001 -1.454463230280e+000 -4.369402374597e+000 -1.607889965539e+000 -1.247607663709e+000 2.410698331422e+001 -1.313792751157e+002 8.569883308136e+000 -1.136458890877e+001 -6.351358061972e+002 1.503892189571e+002 -1.504686254394e+003 -3.467893936274e+001 6.380430216813e+001 -1.246633181936e+001 -1.163619544802e+002 5.417194904968e+001 3.384256425758e+001 4.795660838408e+001 -8.491098576584e+001 2.562195766867e+000 9.495887217905e+000 7.627596837975e+001 9.975703553806e+001 2.316948591321e+000 6.928158783794e+001 -8.691313035455e+001 8.942773636336e+002 -3.242074018382e+002 1.772089276091e+003
 -1.944124951012e+002 -7.105547755362e+001 -5.090161610133e+001 3.741053365729e+001 -9.384925164573e+001 -9.054151978040e+001 -1.779350192947e+002 1.737158596805e+002 -3.753899106220e+002 -2.051560633186e+002 -9.729389442459e+001 5.137879038287e+001 3.480574900039e+001 -1.074677967715e+002 7.683761287759e+001 -1.743771197975e+002 1.795374584283e+002 3.546851518430e+002 -1.009111623432e+002 6.238322078555e+001 -5.658523569331e+000 -2.411411481499e+001 2.942988153404e+001 4.519116915162e+001 -1.470203003211e+001 1.915415484258e+001 -4.543349668962e+001 -2.973778935959e+003 2.674043335865e+002 5.298596063306e+001 -2.224484371797e+002 -4.653632513640e+002 1.871340256715e+001 5.951229152251e+001 -1.946234504141e+002 4.171189899040e+000 1.865533289471e+002 -1.123810376712e+002 -2.267332555445e+002 -1.154033822299e+002 1.991906093550e+002 -6.896134288279e+000 -2.267704422225e+002 2.009872605310e+001 2.280918704318e+001 -1.969398979425e+002 3.396302452691e+001 -5.753836389085e+001 1.701587625675e+002 -7.797781910816e+001 2.020088795390e+002 3.636068845522e+003
 -3.799433698103e+002 -8.276518176395e+002 7.058520269381e+002 1.798305423770e+001 -5.050762096135e+001 -2.440174086401e+001 -6.914372080077e+001 7.780219744432e+001 -1.477915866424e+002 -4.019462787671e+002 -8.731702204330e+002 -7.258497030854e+002 2.932245071049e+001 -5.509015407416e+001 2.302190854151e+001 -6.833806318763e+001 8.322743316900e+001 1.380532023372e+002 -5.743170485912e+001 3.510595781924e+001 -1.821166455431e+000 -1.600772361310e+001 1.559986773886e+001 2.243489094269e+001 -7.346496525977e+000 9.715660204389e+000 -2.279416547436e+001 6.311395649003e+002 -5.077936988593e+001 1.648936783795e+001 -1.033079154764e+002 -2.562908351859e+002 1.145898501916e+001 -1.837413595224e+001 -7.614808810986e+001 -6.059579881657e-001 7.688091032881e+001 -4.969359341737e+001 -8.860176555682e+001 -4.821416321315e+001 8.050845353227e+001 -3.094229474441e+000 1.692410475659e+002 -2.593563167098e+002 -2.895931421043e+002 1.673878419405e+002 -2.369985093984e+002 2.628743960814e+002 7.677656670152e+001 -3.701860812899e+001 8.333719522749e+001 -2.238312187856e+002 2.236416702191e+003