 Job started on host DESKTOP-5CQNRD0
 at Wed Oct  2 11:52:10 2019

 +-------------------------------------------------+
 |                                                 |
 |      CCC   AA    SSS  TTTTT  EEEEE  PPPP        |
 |     C     A  A  S       T    E      P   P       |
 |     C     AAAA   SS     T    EEE    PPPP        |
 |     C     A  A     S    T    E      P           |
 |      CCC  A  A  SSS     T    EEEEE  P           |
 |                                                 |
 +-------------------------------------------------+
 |                                                 |
 | Materials Studio CASTEP version 2017            |
 | Ab Initio Total Energy Program                  |
 |                                                 |
 | Authors:                                        |
 | M. Segall, M. Probert, C. Pickard, P. Hasnip,   |
 | S. Clark, K. Refson, J. R. Yates, M. Payne      |
 |                                                 |
 | Contributors:                                   |
 | P. Lindan, P. Haynes, J. White, V. Milman,      |
 | N. Govind, M. Gibson, P. Tulip, V. Cocula,      |
 | B. Montanari, D. Quigley, M. Glover,            |
 | L. Bernasconi, A. Perlov, M. Plummer,           |
 | E. McNellis, J. Meyer, J. Gale, D. Jochym       |
 | J. Aarons, B. Walker, R. Gillen, D. Jones       |
 | T. Green, I. J. Bush, C. J. Armstrong,          |
 | E. J. Higgins, E. L. Brown, M. S. McFly         |
 |                                                 |
 | Copyright (c) 2000 - 2016                       |
 |                                                 |
 | Please cite                                     |
 |                                                 |
 |     "First principles methods using CASTEP"     |
 |                                                 |
 |         Zeitschrift fuer Kristallographie       |
 |           220(5-6) pp. 567-570 (2005)           |
 |                                                 |
 | S. J. Clark, M. D. Segall, C. J. Pickard,       |
 | P. J. Hasnip, M. J. Probert, K. Refson,         |
 | M. C. Payne                                     |
 |                                                 |
 |       in all publications arising from          |
 |              your use of CASTEP                 |
 |                                                 |
 +-------------------------------------------------+
 
 
 This version was compiled for x86_64-windows-msvc2008 on May 05 2016
 Intel(R) Math Kernel Library Version 11.1.2 
 Fundamental constants values: CODATA 2010
 
License checkout of MS_castep successful
 
 
 Atomic calculation performed for H: 1s1
 
 Converged in 41 iterations to an ae energy of -12.488 eV
 
 Identity difference: 2.63E-05
 
   ============================================================                
   | Pseudopotential Report - Date of generation  2-10-2019   |                
   ------------------------------------------------------------                
   | Element: H Ionic charge:  1.00 Level of theory: PBE      |                
   | Atomic Solver: Koelling-Harmon                           |                
   |                                                          |                
   |               Reference Electronic Structure             |                
   |         Orbital         Occupation         Energy        |                
   |            1s              1.000           -0.239        |                
   |                                                          |                
   |                 Pseudopotential Definition               |                
   |        Beta     l      e      Rc     scheme   norm       |                
   |          1      0   -0.239   0.599     qc      0         |                
   |          2      0    0.250   0.599     qc      0         |                
   |         loc     1    0.000   0.599     pn      0         |                
   |                                                          |                
   | Augmentation charge Rinner = 0.421                       |                
   | No partial core correction                               |                
   ------------------------------------------------------------                
   | "1|0.6|9|10|15|10UU(qc=8)[]"                             |                
   ------------------------------------------------------------                
   |      Author: Chris J. Pickard, Cambridge University      |                
   ============================================================                
 
 Doing a self consistent calculation for the test configuration
 
 Atomic calculation performed for H: 1s1
 
 Converged in 41 iterations to an ae energy of -12.488 eV
 
 ---------------------------------------
 AE eigenvalue nl 10 =       -0.23860176
 ---------------------------------------
 PS eigenvalue nl 10 =       -0.23857601
 ---------------------------------------
 Maximum eigenvalue error:   2.57E-05
 
 Derived cutoff energies: C=   1 M=   6 F=  10 E=  20
 
 
 ***************************************
 
 Atomic calculation performed for C: 1s2 2s2 2p2
 
 Converged in 54 iterations to an ae energy of -1027.632 eV
 
 Identity difference: 2.37E-04
 
   ============================================================                
   | Pseudopotential Report - Date of generation  2-10-2019   |                
   ------------------------------------------------------------                
   | Element: C Ionic charge:  4.00 Level of theory: PBE      |                
   | Atomic Solver: Koelling-Harmon                           |                
   |                                                          |                
   |               Reference Electronic Structure             |                
   |         Orbital         Occupation         Energy        |                
   |            2s              2.000           -0.505        |                
   |            2p              2.000           -0.194        |                
   |                                                          |                
   |                 Pseudopotential Definition               |                
   |        Beta     l      e      Rc     scheme   norm       |                
   |          1      0   -0.505   1.395     qc      0         |                
   |          2      0    0.250   1.395     qc      0         |                
   |          3      1   -0.194   1.395     qc      0         |                
   |          4      1    0.250   1.395     qc      0         |                
   |         loc     2    0.000   1.395     pn      0         |                
   |                                                          |                
   | Augmentation charge Rinner = 0.983                       |                
   | Partial core correction Rc = 0.983                       |                
   ------------------------------------------------------------                
   | "2|1.4|11|12|14.7|20UU:21UU(qc=7)[]"                     |                
   ------------------------------------------------------------                
   |      Author: Chris J. Pickard, Cambridge University      |                
   ============================================================                
 
 Doing a self consistent calculation for the test configuration
 
 Atomic calculation performed for C: 1s2 2s2 2p2
 
 Converged in 54 iterations to an ae energy of -1027.632 eV
 
 ---------------------------------------
 AE eigenvalue nl 10 =      -10.04653081
 AE eigenvalue nl 20 =       -0.50533429
 AE eigenvalue nl 21 =       -0.19423807
 ---------------------------------------
 PS eigenvalue nl 20 =       -0.50531853
 PS eigenvalue nl 21 =       -0.19422214
 ---------------------------------------
 Maximum eigenvalue error:   1.59E-05
 
 Derived cutoff energies: C=   6 M=  10 F=  12 E=  16
 
 
 ***************************************
 
 Pseudo atomic calculation performed for H 1s1
 
 Converged in 13 iterations to a total energy of -12.4498 eV
 
 
 Pseudo atomic calculation performed for C 2s2 2p2
 
 Converged in 18 iterations to a total energy of -148.4701 eV
 
 Calculation not parallelised.

 ************************************ Title ************************************
 CASTEP calculation from Materials Studio

 ***************************** General Parameters ******************************
  
 output verbosity                               : normal  (1)
 write checkpoint data to                       : C2H2.check
 type of calculation                            : single point energy
 stress calculation                             : off
 density difference calculation                 : off
 electron localisation func (ELF) calculation   : off
 Hirshfeld analysis                             : off
 unlimited duration calculation
 timing information                             : on
 memory usage estimate                          : on
 write final potential to formatted file        : off
 write final density to formatted file          : off
 write BibTeX reference list                    : on
 write OTFG pseudopotential files               : on
 checkpoint writing                             : both castep_bin and check files
  
 output         length unit                     : A
 output           mass unit                     : amu
 output           time unit                     : ps
 output         charge unit                     : e
 output           spin unit                     : hbar/2
 output         energy unit                     : eV
 output          force unit                     : eV/A
 output       velocity unit                     : A/ps
 output       pressure unit                     : GPa
 output     inv_length unit                     : 1/A
 output      frequency unit                     : cm-1
 output force constant unit                     : eV/A**2
 output         volume unit                     : A**3
 output   IR intensity unit                     : (D/A)**2/amu
 output         dipole unit                     : D
 output         efield unit                     : eV/A/e
 output        entropy unit                     : J/mol/K
  
 wavefunctions paging                           : none
 random number generator seed                   : randomised (115221401)
 data distribution                              : optimal for this architecture
 optimization strategy                          : maximize speed(+++)

 *********************** Exchange-Correlation Parameters ***********************
  
 using functional                               : Perdew Wang (1991)
 relativistic treatment                         : Koelling-Harmon
 DFT+D: Semi-empirical dispersion correction    : off

 ************************* Pseudopotential Parameters **************************
  
 pseudopotential representation                 : reciprocal space
 <beta|phi> representation                      : reciprocal space
 spin-orbit coupling                            : off

 **************************** Basis Set Parameters *****************************
  
 plane wave basis set cut-off                   :   408.2000   eV
 size of standard grid                          :     1.7500
 size of   fine   grid                          :     2.1000
 size of   fine   gmax                          :    21.7367   1/A
 largest prime factor in FFT                    :          5
 finite basis set correction                    : none

 **************************** Electronic Parameters ****************************
  
 number of  electrons                           :  10.00    
 net charge of system                           :  0.000    
 net spin   of system                           :  3.000    
 number of  up  spins                           :  6.500    
 number of down spins                           :  3.500    
 treating system as spin-polarized
 number of bands                                :         11

 ********************* Electronic Minimization Parameters **********************
  
 Method: Treating system as metallic with density mixing treatment of electrons,
         and number of  SD  steps               :          1
         and number of  CG  steps               :          4
  
 total energy / atom convergence tol.           : 0.1000E-05   eV
 eigen-energy convergence tolerance             : 0.3636E-06   eV
 max force / atom convergence tol.              : ignored
 convergence tolerance window                   :          3   cycles
 max. number of SCF cycles                      :        100
 number of fixed-spin iterations                :          6
 smearing scheme                                : Gaussian
 smearing width                                 : 0.1000       eV
 Fermi energy convergence tolerance             : 0.2721E-13   eV
 periodic dipole correction                     : NONE

 ************************** Density Mixing Parameters **************************
  
 density-mixing scheme                          : Pulay
 max. length of mixing history                  :         20
 charge density mixing amplitude                : 0.5000    
   spin density mixing amplitude                :  2.000    
 cut-off energy for mixing                      :  408.2       eV
 charge density mixing g-vector                 :  1.500       1/A
   spin density mixing g-vector                 :  1.500       1/A

 *******************************************************************************
  
 
                           -------------------------------
                                      Unit Cell
                           -------------------------------
        Real Lattice(A)                      Reciprocal Lattice(1/A)
  14.0000000   0.0000000   0.0000000        0.4487990   0.0000000   0.0000000
   0.0000000  10.0000000   0.0000000        0.0000000   0.6283185   0.0000000
   0.0000000   0.0000000  10.0000000        0.0000000   0.0000000   0.6283185
 
                       Lattice parameters(A)       Cell Angles
                    a =   14.000000          alpha =   90.000000
                    b =   10.000000          beta  =   90.000000
                    c =   10.000000          gamma =   90.000000
 
                       Current cell volume = 1400.000000       A**3
 
                           -------------------------------
                                     Cell Contents
                           -------------------------------
                         Total number of ions in cell =    4
                      Total number of species in cell =    2
                        Max number of any one species =    2
 
            xxxxxxxxxxxxxxxxxxxxxxxxxxxxxxxxxxxxxxxxxxxxxxxxxxxxxxxxxxxx
            x  Element    Atom        Fractional coordinates of atoms  x
            x            Number           u          v          w      x
            x----------------------------------------------------------x
            x  H            1        -0.639804   0.488399  -0.469293   x 
            x  H            2        -0.366953   0.490864  -0.469240   x 
            x  C            1        -0.558377   0.489084  -0.469260   x 
            x  C            2        -0.448380   0.490114  -0.469289   x 
            xxxxxxxxxxxxxxxxxxxxxxxxxxxxxxxxxxxxxxxxxxxxxxxxxxxxxxxxxxxx
 
 
                         No user defined ionic velocities
 
                           -------------------------------
                                   Details of Species
                           -------------------------------
 
                               Mass of species in AMU
                                    H    1.0080000
                                    C   12.0109997
 
                          Electric Quadrupole Moment (Barn)
                                    H    0.0028600 Isotope  2
                                    C    0.0332700 Isotope 11
 
                          Files used for pseudopotentials:
                                    H 1|0.6|9|10|15|10UU(qc=8)[]
                                    C 2|1.4|11|12|14.7|20UU:21UU(qc=7)[]
 
                           -------------------------------
                              k-Points For BZ Sampling
                           -------------------------------
                       MP grid size for SCF calculation is  1  1  1
                            with an offset of   0.000  0.000  0.000
                       Number of kpoints used =             1
 
                           -------------------------------
                               Symmetry and Constraints
                           -------------------------------
 
                      Maximum deviation from symmetry =  0.00000         ANG
 
         There are no symmetry operations specified or generated for this cell
         There are no ionic constraints specified or generated for this cell
                      Point group of crystal =     1: C1, 1, 1
                      Space group of crystal =     2: P-1, -P 1
 
 
                         Centre of mass is NOT constrained
 
                         Number of cell constraints= 0
                         Cell constraints are:  1 2 3 4 5 6
 
                         External pressure/stress (GPa)
                          0.00000   0.00000   0.00000
                                    0.00000   0.00000
                                              0.00000
  
+---------------- MEMORY AND SCRATCH DISK ESTIMATES PER PROCESS --------------+
|                                                     Memory          Disk    |
| Baseline code, static data and system overhead        0.0 MB         0.0 MB |
| BLAS internal memory storage                          0.0 MB         0.0 MB |
| Model and support data                              300.9 MB         0.0 MB |
| Electronic energy minimisation requirements         113.7 MB         0.0 MB |
| Force calculation requirements                      104.3 MB         0.0 MB |
|                                               ----------------------------- |
| Approx. total storage required per process          414.6 MB         0.0 MB |
|                                                                             |
| Requirements will fluctuate during execution and may exceed these estimates |
+-----------------------------------------------------------------------------+
------------------------------------------------------------------------ <-- SCF
SCF loop      Energy           Fermi           Energy gain       Timer   <-- SCF
                               energy          per atom          (sec)   <-- SCF
------------------------------------------------------------------------ <-- SCF
Initial  -7.37565066E+000  0.00000000E+000                         6.58  <-- SCF
      1  -2.61095078E+002  3.42995193E+000   6.34298569E+001       8.22  <-- SCF
      2  -3.34848571E+002 -5.27412471E+000   1.84383733E+001       9.47  <-- SCF
      3  -3.38262968E+002 -6.13215841E+000   8.53599265E-001      10.81  <-- SCF
      4  -3.37451707E+002 -5.19464060E+000  -2.02815393E-001      13.84  <-- SCF
      5  -3.37791334E+002 -4.70448979E+000   8.49067149E-002      16.80  <-- SCF
      6  -3.39757098E+002 -4.41579599E+000   4.91441012E-001      19.84  <-- SCF
      7  -3.27992217E+002 -3.42786011E+000  -2.94122012E+000      22.84  <-- SCF
      8  -3.28371820E+002 -3.43095669E+000   9.49007197E-002      24.33  <-- SCF
      9  -3.27139215E+002 -2.97265589E+000  -3.08151186E-001      27.62  <-- SCF
     10  -3.34159338E+002 -2.36488233E+000   1.75503069E+000      30.66  <-- SCF
     11  -3.36480804E+002 -2.48062070E+000   5.80366358E-001      33.47  <-- SCF
     12  -3.38826146E+002 -2.56534210E+000   5.86335556E-001      36.22  <-- SCF
     13  -3.39470788E+002 -2.91480888E+000   1.61160567E-001      39.23  <-- SCF
     14  -3.40329035E+002 -2.85440521E+000   2.14561791E-001      42.27  <-- SCF
     15  -3.40876110E+002 -2.81083925E+000   1.36768665E-001      45.33  <-- SCF
     16  -3.41380896E+002 -2.90733029E+000   1.26196463E-001      48.42  <-- SCF
     17  -3.41833387E+002 -2.91908514E+000   1.13122884E-001      51.53  <-- SCF
     18  -3.41963670E+002 -2.89807827E+000   3.25707206E-002      54.52  <-- SCF
     19  -3.41980173E+002 -2.86231507E+000   4.12580585E-003      57.56  <-- SCF
     20  -3.41937609E+002 -2.84864598E+000  -1.06411090E-002      60.67  <-- SCF
     21  -3.42004118E+002 -2.84365326E+000   1.66272432E-002      63.75  <-- SCF
     22  -3.41983732E+002 -2.84604124E+000  -5.09652693E-003      66.95  <-- SCF
     23  -3.41997676E+002 -2.83581678E+000   3.48610543E-003      69.73  <-- SCF
     24  -3.42014183E+002 -2.82357101E+000   4.12660993E-003      72.86  <-- SCF
     25  -3.42013228E+002 -2.82095758E+000  -2.38538878E-004      75.86  <-- SCF
     26  -3.42013477E+002 -2.82195457E+000   6.22579804E-005      79.14  <-- SCF
     27  -3.42013188E+002 -2.82115668E+000  -7.23710118E-005      81.92  <-- SCF
     28  -3.42013653E+002 -2.81751579E+000   1.16169229E-004      84.91  <-- SCF
     29  -3.42013995E+002 -2.81835412E+000   8.56430711E-005      88.67  <-- SCF
     30  -3.42014133E+002 -2.81998282E+000   3.45381609E-005      92.62  <-- SCF
     31  -3.42014182E+002 -2.82000651E+000   1.20590463E-005      96.56  <-- SCF
     32  -3.42014186E+002 -2.81984330E+000   9.80981607E-007      99.86  <-- SCF
     33  -3.42014209E+002 -2.81986406E+000   5.96312972E-006     103.39  <-- SCF
     34  -3.42014232E+002 -2.82011671E+000   5.74246151E-006     106.62  <-- SCF
     35  -3.42014245E+002 -2.82015849E+000   3.08983404E-006     109.14  <-- SCF
     36  -3.42014247E+002 -2.82022379E+000   4.66088553E-007     111.78  <-- SCF
     37  -3.42014247E+002 -2.82030817E+000   2.13026759E-007     114.28  <-- SCF
------------------------------------------------------------------------ <-- SCF
 
Integrated Spin Density     =   -0.689567E-04 hbar/2                        
Integrated |Spin Density|   =    0.213320E-03 hbar/2                        
 
Final energy, E             =  -342.0142474533     eV
Final free energy (E-TS)    =  -342.0142474533     eV
(energies not corrected for finite basis set)
 
NB est. 0K energy (E-0.5TS)      =  -342.0142474533     eV
 

Writing analysis data to C2H2.castep_bin

Writing model to C2H2.check
 
 *********************** Forces ***********************
 *                                                    *
 *            Cartesian components (eV/A)             *
 * -------------------------------------------------- *
 *                   x            y            z      *
 *                                                    *
 * H         1      1.88921      0.01478     -0.00075 *
 * H         2     -1.89328     -0.01619     -0.00025 *
 * C         1     11.92381      0.08000     -0.00138 *
 * C         2    -11.91973     -0.07859      0.00239 *
 *                                                    *
 ******************************************************

Writing analysis data to C2H2.castep_bin

Writing model to C2H2.check
 
 A BibTeX formatted list of references used in this run has been written to 
 C2H2.bib
 
Initialisation time =      4.53 s
Calculation time    =    115.33 s
Finalisation time   =      2.31 s
Total time          =    122.17 s
