#BIOSYM hessian 1
@Type: Hessian Update
@Units
 distance: 	A
 energy: 	Kcal/Mol
#header
@natom 6

#label
L1      L2      L3      L4      L5      L6

#element
Li Li Li Li Li Li

#matrix
18
 2.570700985489E+01
 1.718251038892E+01 2.019758542960E+01
 -2.037542534335E+00 -1.899778831346E+00 8.954334906352E+00
 2.273698577210E+00 -2.236910502056E+00 -5.255331902640E-01 2.236650094388E+01
 -4.151784547640E-01 -2.596485329829E+00 1.537981882072E+00 -1.439236878417E+01 1.930272894551E+01
 1.939016049668E-01 5.826452631752E-01 -3.108470980059E+00 2.331428538168E+00 -2.786014517750E+00 9.789567485126E+00
 -7.519736547049E+00 -7.238204334725E+00 3.870664679235E+00 -4.552565795164E+00 7.318597513916E+00 3.359870359160E+00 2.529993145762E+01
 -3.548563963232E+00 -6.197640438980E+00 3.215535886480E+00 7.382094868576E+00 -7.738366130388E+00 -3.579796352882E+00 -4.033462140051E+00 2.918143950717E+01
 6.367454791054E+00 1.178794430945E+00 -4.081821674254E+00 6.633112500670E+00 -2.932672610629E+00 -1.803900242321E+00 -4.306909720288E-02 1.473018904894E+00 4.444776415743E+01
 -8.150326475996E+00 -1.900230811610E+00 1.328267726066E+00 -9.639877845829E+00 -7.959076614655E-01 -5.219135180704E-01 -7.580533603643E+00 -4.756954486418E+00 -1.978276001743E+00 2.743670877678E+01
 -4.384269764590E+00 -4.133825260394E+00 2.278744156943E+00 -1.841917096589E-01 1.143590745139E+00 -1.292078623272E+00 -5.826670008772E+00 -4.017263981768E+00 1.162007651678E+00 1.380001361831E+01 1.405157386379E+01
 -1.404623429874E+00 -1.262046645380E+00 3.484517473750E+00 -8.717408597701E-01 1.510770654106E+00 -3.079723879172E+00 -3.570583185037E+00 -5.994721444739E+00 -5.638040305289E+00 -4.506758374417E-01 1.569111532325E+00 1.105707732873E+01
 -3.784453496755E+00 3.336920204082E+00 1.154489319352E-01 -2.533514052131E+00 -3.678443443310E-01 3.060971523462E-01 -7.907253338645E+00 8.571143297041E+00 -4.871336689925E+00 2.957982614859E+00 1.557925798105E-01 -1.660651546876E+00 2.153912594141E+01
 -1.999536524698E+00 1.410745932611E-01 -9.946204755257E-01 3.877444381026E-01 -1.985256886564E+00 4.349855065055E-01 8.091733218226E+00 -1.251147441755E+01 2.007879368875E+00 2.044869667005E+00 -2.075078913153E+00 5.769192233975E-01 -1.832783839205E+01 2.681089243187E+01
 1.099497222773E+00 1.575808357462E-01 -2.244916401823E+00 -4.457586369806E-01 -7.910733031456E-01 2.400110653750E+00 -6.702852049784E+00 7.781174840382E+00 -3.915384799498E+00 1.495566633351E+00 -2.429724868912E-02 -2.773065824823E+00 1.311407750266E+00 -1.495109288214E+00 1.110787700944E+01
 -8.526191912303E+00 -9.144084944614E+00 -2.751305612637E+00 -7.914241827970E+00 8.652701730809E+00 -5.669384136571E+00 2.260157826883E+00 -3.614257575915E+00 -6.107885502853E+00 -5.023953466167E+00 -3.560674715096E+00 7.958274858999E+00 -1.027188766874E+01 9.803027593418E+00 3.242139080374E+00 2.947611704830E+01
 -6.834961681638E+00 -7.410708993656E+00 -4.137862618623E+00 9.043631689201E+00 -8.126211343866E+00 6.640258724223E+00 1.688005751406E+00 1.283305461518E+00 -2.889027745763E+00 -8.391790325819E+00 -4.968996453618E+00 3.599966680290E+00 6.631826655451E+00 -1.038015680787E+01 -5.628275836080E+00 -2.136712088602E+00 2.960276813749E+01
 -4.218687654584E+00 1.242804946859E+00 -3.003643323966E+00 -7.121508351823E+00 3.461007895347E+00 -4.197583037323E+00 3.085969293629E+00 -2.895211834136E+00 -2.900861713607E+01 1.270309978385E-01 -3.693487468985E+00 -3.050764793199E+00 4.799034402253E+00 -5.300543350383E-01 -4.574620637046E+00 3.328161312687E+00 2.414940795953E+00 4.383522892761E+01

