#BIOSYM hessian 1
@Type: Hessian Update
@Units
 distance: 	A
 energy: 	Kcal/Mol
#header
@natom 19

#label
L1      L2      L3      L4      L5      L6      L7      L8      L9      L10     L11     L12     L13     L14     L15     L16     L17     L18     L19

#element
Li Li Li Li Li Li Li Li Li Li Li Li Li Li Li Li Li Li Li

#matrix
57
 6.053359825350E+00
 1.142970356169E+00 5.879450531587E+00
 9.810247733895E-01 5.742778836550E-01 4.144966829588E+00
 2.543900477845E+00 -2.246470684175E+00 -1.628866414882E+00 1.007540935413E+01
 -1.127299925185E+00 -4.693482809700E+00 -4.318776831898E+00 7.020959693273E+00 1.119396217733E+01
 -3.035913257335E+00 -6.266684809706E+00 -3.001904433215E+00 -1.734655217572E-01 6.213229929988E+00 1.842153067041E+01
 9.413828798811E-01 -7.221335256833E-01 2.060650167265E-02 5.779821032666E-02 -3.141612503488E-01 1.686360948003E+00 1.040861906669E+01
 -1.587710416810E+00 -3.677507858853E-01 -1.063140311843E+00 1.350597496999E-01 1.719361790998E+00 -2.145751913044E-01 7.919571158941E-01 4.590834135058E+00
 -1.419031237487E+00 5.943660738857E-01 6.066687272177E-01 -8.114765822002E-01 -1.237287675889E+00 -2.142105221445E+00 1.965284378900E+00 4.878423873378E+00 1.331644952217E+01
 -1.317266602308E+00 6.150097630878E-01 3.322570573689E-01 -1.346157338709E+00 -1.344383046884E+00 -8.871101676053E-01 -4.407614932908E-01 -1.947478463260E-01 -1.112137124893E-01 2.606117675489E+00
 3.772363569374E-01 4.915631372370E-01 -4.919225063173E-01 7.137406988226E-01 -2.899733736614E-01 -8.627964391545E-01 1.267601036074E+00 -9.307480332792E-01 -1.092046101404E+00 3.807004366350E-01 1.977039512429E+00
 4.555444073434E-01 9.007823898570E-01 5.050381754108E-02 1.747365397033E+00 -4.015690315680E-01 -2.290298665458E+00 1.026101771171E+00 -2.586719844416E-01 -2.341895030790E-01 1.659112537579E+00 1.434897526422E+00 3.248046064078E+00
 -2.901831849442E+00 8.585661470354E-01 1.183398478964E+00 -6.833919626815E+00 -4.989865824093E+00 2.883759643586E-02 7.107895257758E-02 3.013208014511E-01 1.048594233947E+00 2.145333849262E+00 -4.599964721619E-01 -5.361138084301E-01 6.317855019665E+00
 -8.209894229736E-01 1.022611509668E+00 1.156119743062E+00 -6.651196899892E+00 -5.395861848975E+00 -7.809666629258E-01 -7.547938447594E-01 4.501338423607E-01 1.819512607148E+00 1.274204897209E+00 -1.222109840049E+00 -1.395485305389E+00 5.471100614600E+00 7.226526273113E+00
 1.608869922748E+00 2.093474269477E-01 -5.930679538022E-01 1.572329140706E+00 1.846842114183E-01 -3.110079043866E+00 -3.035984941152E-01 3.292937668780E-01 -3.128663105771E-01 5.049083102361E-01 2.338763401879E-01 7.616505418136E-01 -4.483174498961E-01 8.527182882509E-01 3.039639688300E+00
 8.843396972291E-01 1.969684357095E+00 -1.223576304356E+00 -1.171928505638E+00 -6.417097866469E-01 6.914027137488E-01 7.801813905086E-01 -3.012861400067E-01 -1.571762044308E-01 -6.945528266214E-01 1.559941765825E-01 -5.525827828994E-01 -9.019045702409E-02 3.803026457410E-01 -5.121360536861E-01 2.678670847261E+00
 -1.044115752386E+00 -5.682851808023E-01 -9.858229206427E-02 1.523147233061E-01 5.126307931341E-01 5.160016549690E-01 -4.559106745989E-01 -1.431859362582E-01 -6.241172666204E-01 6.020399956036E-01 -5.900622038290E-03 1.952611180730E-01 5.374524826075E-01 1.335057148375E-01 1.879746426601E-01 -5.504594843600E-01 7.049393155431E-01
 -3.587261150296E-01 3.977145216167E+00 -2.825395985793E+00 -1.360233292648E-01 2.497066365585E-01 -1.975135640376E+00 7.473312736192E-01 1.027355459492E-01 5.500698616226E-01 3.184178161476E-01 7.203029231714E-01 6.342456072811E-01 -5.882935081598E-01 -2.309719315027E-01 9.915127828890E-01 3.460815865348E+00 1.166478798972E-01 1.144543722536E+01
 2.120751991996E+00 1.431545679008E-01 1.837127955244E+00 -2.999753347505E-01 -7.778839284239E-01 -1.739257712147E+00 6.132463671480E-01 4.813237536211E-01 -4.244194280747E-01 -5.764333652404E-01 -5.286687483023E-01 -8.837313334979E-01 8.853158207620E-02 2.127020479892E-01 -6.093129609485E-02 -5.561322619270E-02 -4.915839682983E-01 -5.239226773113E-01 9.735059343929E+00
 9.137023586010E-01 -2.610524609296E+00 1.465138586446E-01 5.228555204106E-01 1.221489685014E+00 1.908604022797E+00 3.523263114185E-02 -7.070030662352E-03 3.030514773287E-01 -9.600919963390E-01 -4.148926020682E-01 -7.902937157429E-01 -9.092324087825E-01 1.544036261131E-01 3.717093391815E-01 -9.757090726440E-01 -4.083397238154E-01 -3.309010857319E+00 -1.714881101044E+00 3.495043897456E+00
 1.772308848194E+00 -2.384803020073E+00 2.236643332068E+00 -1.398581278882E-01 -1.788076210694E+00 -1.513372601526E+00 -2.645049572921E-01 -1.888745349043E-02 8.426613064304E-01 -1.021591558757E+00 -2.515444381816E-01 -5.817895340993E-01 2.887021937869E-02 1.283944450991E+00 6.369550463939E-01 -2.721540369262E+00 -7.813419843842E-01 -9.103328931713E+00 -1.731566809408E+00 4.352047570709E+00 1.076159909424E+01
 -2.206736003017E+00 -4.562851496674E-01 7.125453216416E-02 9.603229969760E-01 5.200258426699E-01 -9.179212390397E-01 1.077593554010E+00 4.509736175822E-01 1.208560387774E+00 -3.072969770866E-01 3.171923435406E-01 1.977389245805E-01 -1.319366990824E+00 -1.632167482700E+00 2.158653966020E-01 -2.483642295322E+00 4.444950931584E-01 -2.525695849548E+00 -7.594561397983E+00 2.246580328296E+00 4.319596764935E+00 1.665528057977E+01
 -2.155498332619E+00 -6.184890158751E-01 1.113839831665E+00 -1.068345294562E-01 5.510305353274E-01 1.611912222143E-01 -1.198776276819E+00 -5.660622182498E-01 3.743662624651E-01 -3.727653515003E-02 3.813496749711E-01 8.741717615967E-01 -7.376622824897E-01 -3.522894419119E+00 -3.672694123187E+00 1.918830707923E-02 -4.317940556096E-01 -1.116767625357E+00 6.970303554094E-01 -1.572525827370E-01 -3.973458489323E-01 -4.844618403225E+00 1.319239032057E+01
 -1.112893564673E+00 6.336450553029E-01 9.019790365664E-01 5.259798000808E-01 8.071843882714E-01 5.711253946530E-01 1.301120696954E+00 1.281662069454E-01 -6.404564831293E-01 -6.529864277286E-01 4.570464924531E-01 2.112359651493E-01 -1.676306385971E+00 -4.450435775122E+00 -3.190691959972E+00 -1.853090404116E-01 -4.253517160810E-01 -5.259454458168E-01 3.533893122805E+00 -1.717169127500E+00 -2.411474485620E+00 1.583505814299E+00 4.407493181701E+00 9.405385270558E+00
 -1.081250905423E+00 -1.117590680791E+00 4.167563179096E-02 -3.970083010569E-01 1.349285169991E+00 2.493249750971E+00 -5.023211919645E-01 6.932902892952E-01 8.324094548690E-01 -8.215930010962E-01 -1.150771768963E+00 -1.175469757034E+00 -2.880811695821E-01 -5.742691826030E-01 -1.680259323287E+00 2.611644890302E-01 -2.726696513995E-01 -7.963848484548E-01 2.373100279908E-01 6.738069297661E-01 1.883777203347E-01 -2.055837932648E+00 4.152754081841E+00 8.806912652895E-01 2.898211825721E+00
 9.177387962398E-01 -2.010205418048E+00 6.471844134206E-01 1.133159497354E-01 1.406161730496E+00 4.862045311297E+00 -2.339838452033E-01 7.445032782388E-01 3.086831272739E-01 1.246984020299E+00 -2.078565219685E+00 -1.007213192747E+00 1.209993769426E+00 2.521622287532E+00 1.390299150734E+00 -9.627616433174E-01 4.273986654794E-01 -2.564567438736E+00 1.233084906111E+00 8.134019738160E-01 -2.649725012796E-02 1.506871704117E+00 -8.503169690625E+00 -1.801093174382E+00 -1.568303394354E+00 1.389360785542E+01
 -1.224787768663E+00 -4.276099739553E+00 6.266675884741E-02 1.726487008003E+00 2.919612462405E+00 2.304550744301E+00 1.066893982105E+00 1.344681821612E+00 1.445491221146E+00 -1.678806737996E+00 -2.095704537539E+00 -2.480057788500E+00 -1.272099715898E-01 3.412798226799E-01 1.275597054734E-01 -1.229790779020E+00 5.406786866723E-01 -2.230653019676E+00 -1.044540660434E-01 1.689544214867E+00 1.971795847478E+00 -1.382474789512E+00 1.193501021911E+00 -2.588933613859E+00 2.678368785146E+00 -7.385690441763E-01 1.006070783317E+01
 -9.376319723510E-01 4.723216573873E-02 5.129520377207E-01 -2.620569744665E-01 -1.237753537672E+00 -8.744415491430E-01 -5.511881995074E+00 -1.794442801839E+00 1.172383732695E+00 2.404332746830E-01 -4.024445104199E-01 -9.362608402278E-01 6.451300123880E-01 6.679893593097E-01 1.052656488482E-01 -8.268988598772E-01 8.316164843376E-02 -6.652922030688E-01 -1.032727164159E+00 3.389495036144E-01 1.285370781259E+00 -1.813879984427E-01 1.787401858819E+00 -1.084100905239E+00 4.341060697496E-01 -1.113901848500E+00 2.434382220555E-01 1.064630226957E+01
 -1.456934528006E+00 -6.721170931967E-01 -2.273855089664E-01 -1.234732386571E+00 1.447377461808E-01 9.583601776248E-01 3.324645323376E-01 3.598005226269E-01 -2.311346923406E-01 -5.794237568360E-01 6.919185054392E-01 -5.581711837051E-01 5.711770548825E-01 -1.296242823030E-01 -1.038558657489E+00 -3.509523678244E-02 3.566910227615E-01 6.102336159539E-01 2.845863903207E-01 -1.449585890651E-01 -1.641057365751E+00 6.824660177889E-01 7.658137912199E-01 1.551495269148E+00 -2.111094386429E-01 -2.618001552123E+00 6.803515695586E-02 2.908854905524E-01 8.475510142960E+00
 1.819389978506E-01 -3.697951777508E-01 4.623648472929E-01 -8.456593084709E-01 1.509418161650E-01 -5.726568008249E-02 -6.273976197369E-01 7.915566052500E-01 -8.111896416885E-01 -1.263415871260E+00 4.714620716278E-01 -5.000962159147E-01 -5.778306295694E-01 1.983521652342E-01 -9.160561625753E-01 5.488893284334E-01 2.055096608129E-01 5.638770886032E-01 6.308681132388E-01 2.161665971442E-01 -1.280719065875E+00 -3.662787142575E-01 7.098122063483E-02 5.207520694422E-01 -4.676245684372E-01 -1.312268241115E+00 -6.233122395701E-01 -6.483760507167E+00 4.661031572088E+00 1.243485977980E+01
 1.046570304046E+00 1.228546622985E+00 -7.010487976382E-01 5.976462790880E-01 6.857627566765E-01 -1.273711029118E+00 -3.046760458223E+00 1.219750949417E-01 -3.915177874883E+00 1.944796133399E-01 -1.153063242621E-01 6.943300452223E-01 -9.643304967154E-01 -1.489083328488E-01 6.773040877130E-01 4.741505250726E-01 3.304921019882E-01 9.424253584757E-01 -1.596343121200E-02 -5.717328958477E-01 -1.416499846051E+00 -8.578525591851E-01 -1.246127641273E+00 -6.192605171450E-01 -6.285611110500E-01 3.262500720757E-01 -1.675762729554E+00 -5.399239959587E+00 -2.669235350148E-01 6.641780368697E+00 8.163884383180E+00
 1.529795290829E+00 1.019059344379E+00 2.012254325880E-01 -1.687656377292E+00 -1.184717177922E+00 5.271671497917E-01 -2.053658310254E-01 -7.726643467917E-01 -7.619887855407E-02 -8.293205501273E-01 -4.762512782416E-02 -3.646587727027E-01 -3.367781444647E-01 5.445503876924E-01 -8.391789361790E-01 1.547976508613E+00 -7.420788329776E-01 5.892053983806E-01 -1.386938331866E+00 1.145223060531E+00 5.009492494360E-01 -3.943544572124E-01 1.076950549431E+00 -5.849178198609E-01 5.923143057852E-01 -6.873296936780E-01 -1.783983535362E+00 -1.398897085115E+00 -1.789875731377E-01 2.663056682739E+00 1.652585756428E+00 3.608241946593E+00
 -4.646525216630E-01 -9.930061835447E-01 -1.569072529749E+00 1.856341738258E-01 1.238827374551E+00 1.288375975198E+00 -2.800265223774E+00 -2.260341756247E+00 -1.010085119201E+01 3.546593052855E-01 6.173992618335E-01 -6.616072436122E-01 4.274512179084E-01 -6.026090339625E-01 1.589011237966E+00 -7.507309408627E-01 6.155323935053E-01 -1.936328419420E-01 1.212450256317E+00 -4.386145867428E-01 -3.953336390033E-01 -7.428733540625E-01 -1.420922830679E+00 3.473126806796E-01 -6.413920566742E-01 -6.616476480645E-01 2.919520581748E-01 4.840260150587E+00 2.652490175561E+00 -5.066038368279E+00 -1.482743802268E+00 -3.284664503209E+00 1.717523631598E+01
 1.266904050063E-01 1.531590158612E+00 4.366191354571E-01 -2.688810303193E-01 -2.246746761201E+00 -2.307078326279E+00 -1.047919098377E+00 -1.765244955144E+00 -2.716276262115E+00 -8.137135124921E-01 6.355682857503E-01 1.328273236240E-01 -1.434487463707E-01 -1.985329794992E-01 -6.280157680135E-01 7.257438259817E-02 3.144778501297E-01 -3.106769032857E-01 -1.583665700526E+00 -7.612283351802E-01 9.793002211223E-01 1.534334673802E+00 7.503141545958E-01 -2.157640118477E-01 -3.064205669160E-01 -5.481594786730E+00 6.195129985276E-01 -7.911057460575E-01 1.922220333373E+00 2.784877607495E+00 2.786975645638E+00 4.835483451130E-01 3.317421720779E-01 7.065731119937E+00
 1.783358451666E+00 -7.584864207505E-01 -1.909705683462E-01 2.707333209327E+00 7.153375591178E-01 -4.054031828506E-01 8.558864485152E-02 -2.345343355067E+00 -3.714427189044E+00 1.527276863633E-01 9.318082507324E-01 1.114873348739E+00 -1.513572416553E+00 -1.621192128977E+00 1.009597281781E+00 -3.752513258835E-01 2.349715019377E-01 1.371739762491E-01 4.451371598043E-01 -2.125096892634E-01 -1.727342933497E-01 -9.938353172127E-01 -2.282665671069E-01 -1.866166584122E-01 -9.045002481097E-01 -7.037101685237E-01 3.979106575124E-01 7.749140164860E-01 -1.211159289352E+00 -1.667366766096E+00 1.338772958938E-01 -9.799841809870E-01 3.094076350171E+00 8.599866069886E-01 3.308837950483E+00
 1.873477939661E+00 7.506245198826E-01 1.782890283689E-01 -1.768554587295E-01 -7.878710136211E-01 -6.027359390337E-01 -9.166385535643E-01 -1.215832947997E+00 1.490411529092E-01 -1.096479578637E+00 -4.581629749784E-01 -8.570193007167E-01 -8.296076754217E-01 4.632943650128E-01 2.650981421976E-02 9.124887159578E-01 -4.964520355522E-01 1.421114855501E-01 -1.151554557001E+00 1.053169357863E+00 1.344376192891E+00 -2.452452267951E-01 1.005322672422E-01 -1.693484742028E+00 5.257688417716E-01 -9.453812178187E-01 3.857559919986E-01 6.333487611823E-01 -1.394229129422E+00 4.842750328549E-02 5.585976028646E-01 2.067456587023E+00 -2.229354414224E+00 1.299491830469E+00 1.135909205048E-01 2.784293193664E+00
 -3.348609535927E+00 -7.029654004234E-01 1.005631270873E-01 -2.457766764666E+00 -2.331836814985E-01 2.698718690378E+00 -1.218484813905E+00 6.140722257397E-01 1.377795285258E+00 8.285323224432E-01 -7.442905842927E-01 -5.188193794292E-01 2.024604667297E+00 1.226012757918E+00 -1.274438997934E+00 -4.788824588250E-01 4.797101287990E-01 9.835617263679E-02 -1.395900972689E+00 3.018464550788E-02 -9.119353726363E-01 8.600354866800E-01 1.736591614219E+00 4.155169032142E-01 1.167772133866E+00 1.375590852480E-01 6.526833142442E-01 8.721315363549E-01 6.147271607623E-01 1.665111110871E-01 -3.890884180091E-01 -2.058244824905E-03 -8.990453110030E-01 -3.835400549624E-01 -1.345512016987E+00 -5.151298721053E-01 2.849952030751E+00
 8.908780903200E-01 2.598521079988E+00 -3.301460852364E-02 1.187256957124E+00 -1.780214046190E+00 -2.445446394459E+00 -1.405513983776E-01 -3.981055898957E-01 -8.667174428391E-02 1.244609425281E-01 3.061527335874E-01 8.029474892506E-01 -4.970728153333E-02 -5.613785544364E-01 -1.806607264424E-01 1.016421759638E+00 -3.071745478803E-02 4.229542708782E-01 -1.537312114986E+00 -2.103203142746E+00 -8.560810350089E-01 -2.127512019017E-01 -1.107842294171E+00 -3.877966363656E-01 -8.891709377853E-01 -2.880820674249E-01 -4.081996236684E-01 4.834185745561E-01 -7.299285888070E-02 -1.026926344962E+00 3.553908696717E-01 -5.858273656221E-01 1.715882955321E-01 2.367005033360E+00 5.510706318276E-01 7.121004108048E-02 -1.222454086533E+00 5.797470392909E+00
 6.891406570093E-01 1.125420405565E+00 1.600163586725E+00 8.873047112759E-01 -1.957859154041E+00 -2.732499452166E+00 -1.173579844998E+00 -1.187835917347E+00 -9.254857709301E-02 9.527839002100E-01 3.334753662912E-01 1.369513873420E+00 -3.399544187676E-01 -3.494528368914E-01 5.149040186190E-01 -6.280906289968E-01 3.358929579102E-01 4.291166685428E-01 -5.609070125817E-02 -6.071112660746E-01 -4.145932469984E-01 2.834395287912E-01 3.743656377757E-01 -5.117192288513E-02 -7.978430872918E-01 -2.362458440808E-01 -1.257200011587E+00 7.181980443265E-01 -4.959448706043E-01 3.028496452965E-01 8.186205659721E-01 -1.575310677708E-01 -1.080032155138E+00 8.847705280127E-01 7.776683002650E-01 1.426159439881E-01 -2.166769569461E-02 4.176526807105E-01 2.306748472297E+00
 8.040676834338E-01 5.390757956327E-02 1.870686915999E+00 2.797345766484E-01 -2.249910377191E-01 -4.733845404326E-01 -2.830885329722E-01 -1.412512235338E+00 1.178808532425E-01 -1.217628286217E+00 -1.306636653015E+00 -1.472045892852E+00 -1.096630571889E+00 8.017017609043E-02 -3.835230727807E-01 -3.493838720474E-01 4.901827080479E-02 1.158960190451E-01 6.082251969865E-01 7.047355122822E-01 4.181819793459E-01 1.049916478722E+00 -3.148715844434E-01 -6.454542744539E-01 9.367226990933E-01 2.427521129070E-01 1.534867815930E+00 6.618107023201E-01 4.100887421693E-01 2.776584592674E-01 -4.240337416620E-01 9.826524104142E-01 -1.963074547101E+00 1.874084160349E+00 -6.105768337772E-01 1.901020852663E+00 2.342953132831E-01 -1.181556179129E+00 8.051856487297E-01 6.582102261919E+00
 -7.892475475172E-01 -2.800212511680E-01 4.408044306905E-01 1.573433551892E-03 -2.708447914148E-01 1.093572971024E-01 2.293723495255E-01 1.107069463014E-01 -2.131843344626E-04 7.265077906648E-01 -2.235821711771E-01 3.525686192240E-01 8.830649819918E-01 2.515650362453E-01 -3.187315780825E-02 -7.140914431217E-01 4.750135366791E-01 -5.265572116470E-01 5.697280527117E-01 -8.320984812334E-01 -5.129297916772E-01 -1.257210304093E-01 -3.212637601072E-01 3.265313325724E-01 -9.904245745855E-02 7.270703630133E-01 9.342728250689E-01 -1.656285832203E-01 1.448307179827E-01 -5.740404526921E-01 4.133166025010E-02 -1.172556854935E+00 3.172106701421E-01 5.726635588950E-01 3.787580994565E-01 -6.591895940424E-01 4.033629932048E-01 6.258743530216E-01 4.022406972064E-01 8.882614927733E-02 1.215583100595E+00
 -2.304657467842E-03 3.998184409509E-02 -1.252024299656E+00 -3.454404073382E-01 4.223330251562E-01 3.761587001117E-01 3.527416648464E-01 7.400546097252E-01 1.148056545045E-01 -3.668367976792E-01 4.835740054127E-01 -1.609339491822E-01 1.538066345031E-01 1.319417851905E-01 4.013952857864E-02 5.368287540471E-01 -2.854436177194E-01 -1.424850685745E-01 -1.568058948040E-01 2.606603539292E-02 4.760364732941E-01 5.962449546563E-03 -5.949452051804E-01 9.570816713712E-02 -3.294948666646E-01 -5.092976092537E-01 -5.365532466410E-01 -2.662188993402E-01 -3.330100850226E-02 -7.521432720035E-03 -1.645726072979E-01 -6.868778737134E-02 7.734661743508E-01 -3.575095077575E-01 -8.576742855752E-02 -3.267654393359E-01 -5.546483788071E-01 4.631337465507E-01 -1.161779045869E+00 -2.095904011835E+00 -4.645225206130E-01 1.484921604313E+00
 -4.578671507342E+00 -1.664311594912E+00 -1.728867332279E+00 -1.300954273113E+00 3.061186731827E-01 1.202905061591E+00 -2.814475662373E+00 1.725369737762E+00 1.581413796204E+00 2.934618179937E+00 7.768315142337E-01 1.294331817235E+00 3.673596835908E+00 1.234236292060E+00 -1.734884503258E-01 -1.253020288212E+00 1.306990169170E+00 -1.569114554656E+00 -2.469258214390E+00 -1.136628607242E+00 -1.365857088420E+00 5.821131665190E-01 6.697280400918E-01 4.108869968862E-01 -1.356071336178E+00 1.393946913960E+00 4.356288970090E-01 1.458177578732E+00 2.138930265438E+00 1.484472571999E+00 6.186851892138E-01 -2.755859315513E+00 9.642333993895E-01 -2.001200698748E+00 -2.524527092129E-03 -3.347930720126E+00 2.001371125341E+00 1.891469271712E+00 -1.499002183107E-01 -8.306344328976E+00 1.009210519342E+00 1.815299023498E+00 1.889133862097E+01
 -1.827264670085E+00 2.603681119257E+00 9.232978175240E-01 -1.125140135104E+00 -3.239020803727E+00 -1.671449925348E+00 4.254002588811E-01 7.615990035083E-01 -1.218023683163E+00 5.692492908508E-01 6.864278215659E-01 -3.256528835583E-01 1.570557104961E+00 1.478462336569E+00 3.407820210837E-01 -3.877834742088E-01 3.553599431208E-01 -9.102287689492E-01 2.431459985282E+00 -2.561706334356E+00 1.196441670772E+00 -4.073394595090E-02 -2.452972929811E+00 -3.093821710842E-01 -1.385526535431E+00 -9.925272422274E-01 -2.120648579946E+00 -1.451982445426E+00 -1.300048045887E+00 -3.858587702405E-01 4.550348661644E-01 -3.178528342824E+00 2.265288496297E+00 1.642232560917E+00 -1.318878831743E+00 -2.339061358077E+00 -4.407194650187E-01 1.493799298162E+00 6.334343442904E-01 -1.033144954129E-01 1.801048449131E-01 5.993182786707E-01 -1.104149140599E+00 2.187079911064E+01
 -8.943475746354E-01 7.822350230896E-01 -6.743307118888E-01 -1.529618498824E+00 -1.467595488949E-01 1.006271838777E-01 -5.576212768985E-01 4.239439235444E-01 -7.289115180658E-02 -5.185278884618E-02 -2.309580037446E-01 -1.625086525788E-01 6.563113858644E-01 5.923900191397E-01 -1.787974940762E-01 6.730246546323E-01 5.436300685201E-02 2.301652419213E+00 -1.318088864419E+00 -1.930400287876E-01 -1.648646110901E+00 4.959793764551E-01 3.940638688631E-01 -3.375305275611E-01 5.326600169269E-01 -1.249245867463E+00 -4.066789540418E-01 2.661303212994E-01 1.669658346382E+00 5.560177919126E-01 4.462856779593E-01 1.045184963602E+00 9.672642915680E-01 9.191610670080E-01 -7.633315604411E-01 4.729252316549E-01 8.336739458869E-01 -2.779137147259E-01 -3.607300005416E-01 1.063610313001E+00 -6.279491039880E-02 -2.716829318614E-01 -2.084472449101E+00 -3.510370660759E+00 2.806796265834E+00
 3.636419648050E+00 3.098904716521E-01 -1.062701452102E+00 -4.810651342030E-01 -3.281370520124E-01 -1.415792581298E-01 -6.784111954895E-01 -2.116329807893E+00 -2.364715901100E+00 -1.881383618977E+00 6.924499324266E-01 -1.040028637121E+00 -1.314080471582E+00 6.947718392151E-01 5.726430255725E-01 2.723760178869E+00 -1.240841102082E+00 1.613033658501E+00 4.382444605992E-01 1.537060314621E+00 1.244051669650E+00 -6.322179104350E+00 2.342756390608E+00 -3.391340998494E+00 8.779464367165E-01 -3.622214586712E+00 5.597087094615E-02 9.490157159007E-01 -1.974501853021E+00 4.668626752151E-01 1.097990919855E-01 3.154307106229E+00 4.912931915792E-01 -4.374336637694E-01 1.167461068375E+00 2.713017846101E+00 -1.852165599508E+00 -1.063790330351E+00 -1.019274854627E+00 -6.479797302847E-01 -2.325004782513E+00 1.072462915354E+00 -3.328489916481E+00 -1.698478117517E+00 -2.467794478158E-01 1.017103885446E+01
 2.289266794749E+00 1.688905376123E+00 2.417317752916E-02 -4.794777671018E-01 -1.924029604877E+00 -1.739983382506E+00 2.400779574470E-01 2.141307601836E-01 6.062204504266E-01 -1.821732644388E+00 -8.316654250465E-01 -1.362573523665E+00 -1.397491358135E+00 -3.708409555109E-01 1.432603590032E-01 1.445866691213E+00 -1.195269914946E+00 8.421517074943E-01 -1.848170953886E-01 1.217802166889E+00 1.160968275969E+00 1.093631208366E+00 5.819909842867E-01 1.147596611405E+00 9.210407684272E-01 -1.789736517220E+00 5.329279488180E-01 3.668593641614E-01 -3.141364334399E-01 -1.066664344722E+00 -5.671370846406E-02 1.347861143029E+00 9.056105313855E-01 -9.769373681754E-02 -2.604686602611E-01 1.402620690021E+00 -7.364723466417E-01 5.042510857164E-02 -2.680330681672E-01 -3.959944978267E-01 -1.070052461266E+00 2.784605603699E-01 -1.113783568281E+00 -8.762301127003E-01 2.831457175930E-04 2.363179451195E+00 7.485465780867E+00
 1.108237826977E+00 1.128313831986E+00 -2.156309097311E-01 -3.424866124527E-01 -8.508610124704E-01 -1.436840739260E+00 -1.670957975891E+00 -5.838241982607E-01 -7.278558503226E-01 -5.769618538147E-01 -6.443015561594E-02 -5.863968831357E-01 2.183120738910E-01 1.394609973258E+00 5.105987885316E-01 1.011181238571E+00 -3.169043967248E-02 7.943943325914E-01 7.463802575112E-02 -5.052611960021E-01 1.057195974230E-01 -2.876940462225E+00 -8.796767305327E-01 -2.936290765593E+00 -2.322639734794E-01 -1.140820057834E+00 2.523887040495E-01 2.372794110553E-01 -4.454578823228E-01 1.241286592927E+00 1.383141413691E+00 7.981986171754E-01 -4.926151580770E-01 1.942043758588E+00 1.595267126179E-02 1.276738673994E+00 -8.073296992599E-01 1.483161874796E+00 -4.598010941223E-02 9.474905044146E-01 -3.097645185950E-01 2.079872899218E-01 -1.853327570255E+00 1.573485315980E+00 2.382597992138E-01 2.622718025598E+00 -1.050461664256E+00 2.960596128372E+00
 -1.446377674602E+00 2.020941105980E-01 2.061385495626E+00 2.616835577123E-02 4.190715159932E-01 -2.046339486959E-01 3.198121022940E+00 8.377227131036E-01 -5.083396164670E-01 8.767428801681E-01 -7.414605829248E-03 5.150391224838E-01 1.618817773861E-01 -1.017093319835E+00 -6.619937377043E-01 -3.026100800985E-01 1.861189480233E-02 -7.352821305881E-03 -7.087656454427E-01 -4.179056806947E-01 -5.505913113286E-01 1.455611617601E+00 5.966174328108E-01 5.096548274330E-01 3.401136811929E-01 3.788885514480E+00 -1.794289437732E+00 -2.068484269657E+00 -1.066464851498E+00 -4.342962780597E-01 -2.478627097575E+00 2.679301336262E-02 1.965216424263E-01 -4.500894209424E+00 -2.268823901103E+00 -2.186810355869E+00 3.235564918975E-01 -1.750353954232E-01 -1.093106884498E-01 1.555632390154E+00 -8.170914219891E-01 -6.198406881154E-01 -4.718283343590E+00 6.113283810387E+00 3.168302555128E-02 -9.777395518633E-01 -3.227146655414E+00 -4.190509656204E-01 1.839797151527E+01
 -8.623312173976E-01 -1.449114331181E+00 -2.302077286075E-01 1.418975151114E+00 2.158680426166E+00 -1.337097735532E+00 -1.598676165857E+00 -1.840092267064E+00 8.794517873321E-02 -4.161408275125E-01 2.928450227939E-02 -7.996013150041E-01 -2.327950625206E-01 -5.925700389985E-01 -3.207019163105E-01 -7.743831620134E-01 6.792875261955E-01 -5.772304322179E-01 8.723579887251E-02 -9.172995715785E-01 -6.723857126148E-03 9.159381552208E-01 -6.113647760354E-01 2.377160537676E-01 -7.309267640275E-01 1.901369089025E-01 2.456184706433E+00 2.303562376776E+00 -4.369095562698E+00 -1.864363140979E+00 -1.529998569219E+00 -1.116976192355E+00 -2.762815313515E+00 7.205356929583E-01 2.203235674890E+00 1.101744663340E+00 -2.826607487262E-01 4.563501375271E-01 -3.178215678140E-01 2.658913042586E-01 5.474485585568E-01 5.421320734298E-01 1.936321009599E+00 -4.479317261099E+00 -1.316511724304E+00 8.050225855747E-01 -4.600641943764E+00 1.543961108440E+00 -3.012856205715E+00 1.589883306407E+01
 6.638207621485E-01 1.615008770209E+00 -9.144386336298E-01 -2.606066631623E-01 5.975690907273E-01 2.250727000958E+00 -1.987954971673E+00 -7.224671427483E-01 5.058057384923E-01 2.274452453011E+00 1.422025614305E-01 1.518588580871E+00 -2.069545588271E-01 -2.864273027245E-01 -6.212534482819E-02 1.316951721868E-02 -5.797815635212E-01 -9.728608270507E-01 8.727355902742E-01 -1.683431471135E-01 3.148307135764E-02 8.476130458942E-01 -1.368967120307E+00 2.075001679514E+00 -9.224373714208E-01 5.694604053847E+00 -7.590430398105E+00 1.883942183479E+00 -5.538514039040E+00 -6.090845718046E+00 -5.218969475224E-01 4.387557113635E-01 -1.430954072809E+00 -4.409655422295E+00 -3.219794924957E-02 6.571538014861E-02 3.386540960550E-01 -1.554486640852E+00 4.494178718598E-01 -1.142958730087E+00 -3.369186648296E-01 1.676627757263E-01 -1.173428866752E-01 1.555863400228E+00 -1.634370876788E+00 -8.563850604425E-01 -2.302215964625E-02 -1.812460258293E+00 -6.293192599799E-01 1.455243839448E-01 1.569068456137E+01
 -4.751709336812E-01 -4.520455427851E-01 -1.705912379855E+00 -7.384276744271E-01 9.042667955446E-02 2.641963536543E+00 -2.961443106675E-01 8.561135477227E-01 1.325818166137E-01 7.659429678659E-01 3.972974605598E-02 8.253990736588E-01 1.348778603059E+00 8.856810652987E-01 2.864993905567E-01 -4.527515963042E-01 1.767501156820E-01 -5.184926388500E-01 1.163714406708E+00 -7.001212728632E-01 -4.510693826907E-02 -1.285732819372E+00 -7.607782951483E-01 6.160628666851E-01 1.167984162105E-01 -9.511582503174E-01 3.399103731949E-01 4.337511881029E-01 -1.380040961959E+00 -3.238433422768E+00 6.956599511525E-01 -1.251083819053E+00 1.925945334057E+00 2.042318247535E+00 1.602217021943E+00 8.422631272684E-02 4.497758795744E-01 7.042222510162E-02 -5.546570789751E-01 -1.915086564621E+00 1.650414979492E+00 6.248848584683E-01 1.135288369154E+00 -3.393710522736E+00 1.132271512837E+00 -1.995104389261E+00 -3.484976038388E-01 -4.571745188892E-01 -9.576546098479E+00 1.777732825540E+00 2.774743513901E+00 1.087480562580E+01
 8.130513445460E-01 7.246403979115E-02 -4.066147477692E-01 2.953536522549E-01 1.078988130230E+00 -1.155031526857E+00 3.077009923594E-01 1.561230981569E+00 1.566393063007E+00 4.098483893244E-02 -2.464377513291E-01 1.057445607526E+00 -7.786550398038E-01 -6.542552915907E-01 5.363708789298E-01 -2.502401781201E-02 -4.694095714498E-01 1.359101873695E+00 -7.611372534298E-01 9.087568958888E-01 -3.956589050337E-01 3.676781783884E-01 1.050824769289E+00 2.272773233023E-01 8.180099450335E-01 -3.480506880500E-01 -6.072069744925E-01 -9.997639755846E-02 5.886773191123E-01 -5.189298769066E-01 1.934683770607E-03 1.423794341608E+00 -6.365929891540E-02 -9.239499040399E-01 -4.034120372488E-01 6.166053114057E-01 1.180655793178E-01 -1.115657770631E+00 -3.656222635095E-01 5.956727447774E-01 -2.250254295120E-01 -2.390823761489E-01 -3.431904737298E+00 -8.994790056346E+00 3.400560739809E+00 -2.057255435660E-01 8.518889669884E-02 -7.319986810455E-01 3.609201517687E-01 -1.308586286764E+00 -6.722664245290E-01 2.523511556912E+00 7.846531624246E+00
 -1.676550461886E+00 -7.285381049673E-01 1.275672957021E+00 -2.469652960129E-01 -1.275902753100E+00 2.646052797434E-01 3.014227756786E-01 2.045111598135E-01 -7.413430718671E-01 8.420796953848E-01 2.029043434298E-01 3.107988058509E-01 1.355509760352E+00 1.144507818301E-01 -2.498300474041E-01 -7.328848812342E-01 5.890291766345E-01 -4.216180790560E-01 7.196072335652E-01 -1.220051200094E+00 -8.008427943181E-01 -7.609195041458E-01 7.242980309939E-01 8.602051374571E-01 -2.674802503554E-01 7.247193861570E-01 1.273275736770E+00 -5.392785690559E-01 -1.056775362074E+00 6.365780813327E-01 -2.447907490209E-01 -1.862104449373E+00 1.058651134060E+00 -1.030915867017E+00 4.841124471839E-01 -2.059589259302E+00 5.691361001139E-01 6.615804163727E-01 6.403018386786E-01 -2.497453868952E+00 5.277261128543E-01 2.672980138998E-01 4.433272416001E+00 3.993336853257E+00 -1.569924645317E+00 -9.406486750297E-01 -1.063355161357E+00 -5.191420134461E-01 3.530615734988E+00 1.199895173798E+00 -2.542499041011E+00 -1.766405769997E+00 -2.494764569220E+00 5.450958067448E+00