#BIOSYM hessian 1
@Type: Hessian Update
@Units
 distance: 	A
 energy: 	Kcal/Mol
#header
@natom 19

#label
L1      L2      L3      L4      L5      L6      L7      L8      L9      L10     L11     L12     L13     L14     L15     L16     L17     L18     L19

#element
Li Li Li Li Li Li Li Li Li Li Li Li Li Li Li Li Li Li Li

#matrix
57
 8.618922113424E+02
 -5.782550169010E+01 2.433515445163E+03
 2.812416242344E+02 6.190918356128E+01 6.433906362439E+02
 3.581429529090E-01 5.017611912738E+01 2.655124099362E+01 7.900336364000E+02
 7.031541768185E+01 6.256773267416E+01 -1.680500549862E+01 -3.733880596131E+02 1.780801098457E+03
 -3.001314933568E+01 -1.238681685552E+01 1.730429632690E+01 4.957250393461E+02 -1.236985474838E+03 2.021068312406E+03
 -8.407406601774E+01 3.791779341903E+01 4.641067362132E+01 -2.629813185508E+00 -2.273179380896E-01 5.646069975824E-01 1.384808539850E+03
 -4.122885889239E+00 -8.150666037618E+01 -2.576708081055E+01 3.365047488910E+01 1.145292057435E+02 -3.867327592076E+01 -6.668662614264E+02 1.494696369858E+03
 8.070541025436E+01 -3.058166416817E+01 -4.751102697706E+01 -4.632758647209E+01 -8.016572164075E-01 -1.430043142025E+01 9.427936956372E+02 -9.008001407476E+02 1.405234616935E+03
 1.419201410200E+01 3.128848078777E+01 7.955248698061E+00 -8.068520631459E+01 2.576129223718E+02 -3.319820767051E+02 -4.680317945539E-01 3.913371247270E+01 -2.066852690073E+01 5.947635799043E+02
 -3.996570359729E+01 -2.196893687922E+01 1.930625125256E+01 3.712387169491E+02 -1.275425062122E+03 1.470356822731E+03 1.848075059361E+00 -5.498309229230E+01 -1.283325106683E+01 -1.639693665806E+02 1.798688560846E+03
 4.887617873286E+01 3.991505414302E+01 -1.636634299416E+01 -4.022519932448E+02 1.398841341303E+03 -1.629085310546E+03 1.572396244322E+00 7.772811110692E+01 5.455644496402E+00 2.453618652301E+02 -1.105264833487E+03 2.341943720617E+03
 1.624559554856E+01 3.107967491372E+01 1.278661892374E+00 -3.465585119218E+00 -7.028894982460E+01 3.018304102195E+01 -1.040009104295E+02 -1.796089251262E+01 -1.854931145965E+02 -8.380564946577E+01 -5.721206866330E+01 -2.008888071530E+01 1.922605959541E+03
 4.988048016390E+00 -2.241776156314E+01 -1.354801984554E+01 -2.427807287017E+01 4.029836447264E+01 -2.232889810115E+01 -5.048945788477E+01 -4.189888140352E+01 -6.569323570346E+01 -9.678642745705E+01 -1.769686842796E+02 7.075289118311E+01 -4.851183970228E+02 6.132422030527E+02
 1.178667252800E+01 1.050691832672E+01 6.050211550577E+00 -1.080783751452E+01 -3.240242449822E+01 1.740721688079E+01 -1.765858974846E+02 -7.421431040904E+01 -3.103009918253E+02 2.185558678961E+01 6.147565892830E+01 -3.790798724403E+01 -4.229638436896E+02 1.793314452779E+02 7.393529503458E+02
 -5.069178777991E+01 -4.990536065673E+01 -4.459516378219E+00 4.581749352406E+01 6.399296989633E+01 -1.437522431937E+01 -1.367797149215E+00 -6.604426969863E+01 -1.578636224789E+00 3.678940764070E+01 -2.568487107462E+01 4.646963646792E+01 3.224807779674E+01 -2.674371232137E+01 2.343458691190E+01 1.265381014195E+03
 2.070293878457E+01 1.589057427374E+01 -3.773316752718E+01 -2.610214256300E+01 -5.892078279185E+01 1.442759299896E+01 4.111040668488E-01 5.217817236642E+01 -1.660708096477E+00 -2.955730878116E+01 2.446859162511E+01 -4.010559509214E+01 -1.480264266375E+01 1.819558544744E+01 -2.800273021116E+01 -3.170559124174E+02 1.379537432874E+03
 4.662934452429E+01 5.295627066635E+01 -3.164730859539E+01 -5.697226146852E+01 -1.258702154842E+02 3.656206104197E+01 1.299327913896E+00 1.079958916457E+02 -2.134977971175E+01 -5.114814002366E+01 5.606873626015E+01 -8.245499330018E+01 -6.055089340699E+01 2.972829725067E+01 -2.543982741962E+01 -1.536966230100E+02 4.335629563625E+02 8.082688086772E+02
 3.623448511331E+01 3.761334732412E+01 -3.440524162671E+00 -5.760211090411E+01 -1.434269711308E+02 1.231946279958E+01 -3.708267940730E+02 -2.293514041394E+02 4.742449995871E+01 -1.134847181374E+02 -1.068907198433E+02 -2.434086115331E+02 -5.595745669481E+01 -3.365000816843E+00 5.564782475663E+01 4.057995173759E+01 -3.634141315616E+01 -7.295090460568E+01 9.248916130670E+02
 -3.456878117550E+01 -2.949192737903E+01 5.897152642529E+00 -2.784871130055E+01 -2.853229422118E+02 -7.055258912908E+01 -2.925005777193E+02 -2.909965932188E+02 4.309961279126E+01 -1.135295561572E+02 -2.705607588615E+02 -2.911580202701E+02 5.024118622200E+00 -5.314893159805E+01 9.328393194542E+01 -3.144196252167E+01 2.697684166193E+01 6.196540379689E+01 1.120470784394E+02 1.559795322159E+03
 2.945776374663E+01 -3.573023036331E+00 -2.237123902909E+01 -6.896295545800E+01 -5.708983376675E+01 -2.538557197211E+01 4.687217302710E+01 7.423419410950E+01 1.803709816579E+01 -2.079492275193E+02 -3.361115184762E+02 -4.290075763032E+02 4.432208695363E+01 1.247276426625E+02 -2.318108057423E+02 -2.846883615609E+00 -5.802408352958E+00 -1.982076302303E+01 5.075903731625E+02 -7.518260121018E+02 2.662764386373E+03
 -5.105111863313E+01 -4.028704614974E+01 1.779343231518E+01 -1.795914016826E+02 -9.275383624846E+01 2.597206506949E+01 4.176130746361E+00 2.248020625699E+01 7.559538866216E+00 -9.595356606542E+01 5.381724901602E+00 -3.833796463150E+01 -2.573765272410E+01 3.315361023953E+01 -1.876141549327E+01 5.128011855714E+00 -1.088910112745E+01 -1.324646243724E+01 -2.590032061426E+02 1.726727049658E+02 1.069953033714E+02 1.443699554996E+03
 -3.070609896639E+01 -1.611532734678E+01 1.387979542348E+01 -9.573514556667E+01 -7.626732502059E+01 2.230268836096E+01 5.312804318201E+00 -8.833974840506E+01 -2.845843362111E+01 -1.727019330616E+01 1.647012729823E+01 -2.497212619545E+01 8.690076397497E+00 -2.756409547284E+01 1.702875218170E+01 2.123194832664E+01 -1.584096917982E+01 -3.974548098699E+01 1.396592710586E+02 -8.961548907286E+01 -6.798676712101E+01 6.017608590681E+01 1.271582589963E+03
 5.523678325070E+01 4.006618542511E+01 -1.823610894836E+01 -2.116509000474E+01 -2.859982428977E+01 -7.175508667172E-01 3.685643959761E+00 2.012642657756E+01 2.400567133144E+00 -5.340219155363E+01 1.178435578383E+01 -3.427660189861E+01 -3.576828899691E+01 4.727628733110E+01 -2.933140924639E+01 3.620653194044E+01 -1.903631869490E+01 -8.176929716721E+01 7.717715840126E+01 -4.639028513379E+01 -3.135304607835E+01 -1.350746404276E+02 -1.286419031077E+02 1.677323231985E+03
 4.534490792405E+01 4.793163516875E+01 -1.576508219617E+01 -1.512276073982E+02 -3.918234362385E+01 1.361929150815E+02 -2.266337166061E+00 8.084110871073E+01 2.419697082423E+00 -9.181406380114E+01 8.462543987121E+01 -3.568775228749E+01 -3.860240299378E+01 2.850980329416E+01 -2.139371563971E+01 3.635871050542E+01 -4.365736249939E+01 -7.705500319432E+01 -5.454088553944E+01 3.686918334809E+01 -2.120688508741E+00 -2.349200117529E+01 -6.222852684936E+01 -4.739627266089E+01 3.350971520363E+03
 1.979275845680E+00 1.950338683126E+01 8.706174034785E+00 6.278584854297E+01 -6.562543007319E+01 -5.276967169146E+01 -1.685969822718E+00 1.563535943618E+01 -1.707025564538E+01 5.308459682672E+01 -4.027956520922E+01 -4.436871098817E+01 -1.597068329166E-01 -8.433241544623E+00 -1.108538097930E+00 9.381759023589E+00 -2.231695145926E+01 -1.357174654001E+01 -1.418841772642E+01 1.659692489238E+01 -2.120368550631E+01 -4.089519442345E+01 -8.283277076786E+01 -6.925645581673E+01 -3.153630002439E+02 1.364119681348E+03
 -2.554722147493E+00 2.071450587999E+01 1.098931664048E+01 1.375240226609E+02 -1.012527142421E+02 -1.188112722297E+02 -3.251153599417E+00 1.121732383722E+01 -1.943045872277E+01 1.198312373537E+01 5.469877738364E+00 -3.264700390846E+01 -2.293406183950E+00 -1.288364960293E+01 -4.653947542102E+00 3.082773023028E+01 3.637147043529E+00 -2.439537754610E+01 -1.594287095843E+01 1.489682743073E+01 -2.624261493016E+01 -3.221617676632E+01 -6.141897844044E+01 -5.603127375809E+01 3.672381648084E+02 -6.380543674861E+02 9.378458467949E+02
 -6.420332099191E+02 -6.035941871926E+01 -4.680885486760E+02 -5.559446337067E+00 -4.176222559714E+00 -5.726027098594E-01 1.884158021931E-01 1.154282600356E+01 1.225611235874E+01 -6.153845866187E+00 -4.468617024775E-01 -3.088975611458E+00 -1.735997392203E+03 6.312717458511E+02 4.975927820806E+02 -2.105937967047E+02 4.975478370871E+02 2.686819545707E+02 -1.806753150434E+00 9.799546115281E-01 6.158203572531E+00 -8.219959454324E+00 -3.069304495563E+01 3.294157250122E+01 8.782241747612E-01 -2.481713315153E+00 -2.910507720650E+00 2.812993945036E+03
 -1.161629269576E+02 -5.922160046137E+01 -3.700619678703E+01 3.841913851826E+01 9.225262217353E+01 -2.695902932850E+01 6.542691158587E+00 -9.918477033618E+01 -2.408741099923E+01 4.009086323903E+01 -4.230231929593E+01 6.359931928175E+01 6.603307715693E+02 -2.501709125545E+02 -1.534299217991E+02 4.578471194171E+02 -1.157738915027E+03 -5.495429741546E+02 5.420101446520E+01 -4.508235279194E+01 1.417291068217E+01 -9.586598176545E+00 -7.084321544767E+01 1.683370146079E+02 5.960055309600E+01 1.381556506859E+01 1.016843282528E+01 -8.923157567928E+02 1.798992500194E+03
 -4.961619912410E+02 -5.669370948649E+01 -3.230271809491E+02 4.243375512137E+01 -1.035294389554E+01 1.602672872526E+01 1.072317147683E+01 -5.111991821178E+01 -9.427691945469E+01 1.587224032834E+01 1.707420687396E+01 -9.423467550569E+00 5.213846409176E+02 -2.120310715990E+02 -1.433549209728E+02 2.747105202813E+02 -6.215230739952E+02 -3.248431774149E+02 -7.046366302612E-01 4.050647317942E+00 -2.903538525277E+01 3.299784492135E+01 1.298987580173E+02 -1.879421512495E+02 -8.017672061723E+00 1.446480926173E+01 1.501521927695E+01 -2.593239066197E+02 8.091162486355E+02 1.148746486486E+03
 -1.753741284540E+00 -2.769689218637E+01 -2.252847470207E+00 -1.170329999743E+01 4.505510623411E+01 -2.116609006339E+01 4.656153047781E-01 -1.155408181974E+01 1.010319348603E+01 6.526343902105E+00 -2.755911135542E+01 3.034180898205E+01 1.180864648666E+01 9.507856179619E+00 5.223837463817E+00 -2.476609442990E+01 1.515763994053E+01 3.521931772110E+01 2.191326723401E+01 -2.037001140086E+01 2.034146709124E+01 -1.285664354139E+02 -4.087797999317E-01 -1.195221543448E+02 2.706197228128E+01 -2.170423627697E+00 -6.767658042306E+00 -7.906554947548E-01 -2.176472194225E+01 -2.082960812958E+01 1.436279185262E+03
 -4.455213529432E+01 -3.726660684499E+01 3.266251870333E+01 3.659271363758E+01 5.543959424268E+01 -1.424929501306E+01 -5.119683997768E+00 -6.184723956837E+01 9.861184603996E+00 2.826304522286E+01 -2.131989156783E+01 3.565479159377E+01 2.319185402516E+01 -2.262350542531E+01 1.200398491140E+01 -2.808586604987E+01 2.501835059077E+01 5.749105877880E+01 3.228412152442E+01 -2.586900229973E+01 9.360211141910E-02 -5.105070876120E+00 1.401483635409E+01 2.756138023843E+00 4.003323373351E+01 1.493022280640E+01 1.483052377036E+01 -2.883958306267E-01 -4.209354077899E+01 9.082491553593E+00 -1.362219270159E+03 3.219800784966E+03
 -5.515313086554E+01 -3.262562585768E+01 -3.414539386909E+01 7.131933194760E+01 1.119571947966E+02 -3.029571513049E+01 3.797898511468E+00 -1.089652507336E+02 1.025575277822E+01 5.027476786794E+01 -4.684085461872E+01 7.479079416973E+01 5.402467182494E+01 -3.372535407371E+01 2.057957662553E+01 -6.356313669392E+01 5.636976470344E+01 1.175728171936E+02 6.440321066799E+01 -5.111159010028E+01 5.767566721263E-01 -1.258745844916E+02 2.158001306905E+01 -1.077035205059E+02 8.236937009052E+01 2.712155988061E+01 2.669149676586E+01 6.545874925807E+00 -8.724853553215E+01 3.594706648572E+00 9.787956273763E+01 3.590115529667E+02 8.830697020380E+02
 6.512040651937E-01 2.139279215673E+00 1.585628981718E+00 -2.101089637094E+02 1.369619291533E+02 -6.397380307038E+01 -1.362775476543E+00 5.838047892207E+00 -4.211012024602E+00 -1.274186109330E+00 -4.374517151275E+00 -4.799311760772E-01 -2.996613239916E+00 -5.914455877669E-01 -5.988550637647E-02 6.091461558603E+00 -7.738287791187E+00 -7.402168376199E+00 -4.193880202489E+00 4.469347951206E+00 -4.713553086336E+00 -3.895082778956E+00 -1.953532007064E+01 4.096222599518E+00 -1.655301388464E+01 6.329997716196E+00 -5.147750093266E+01 -1.745935317108E+00 8.075513581505E+00 3.722877326265E+00 -9.482945955155E-01 3.701693936975E+00 8.974335394519E+00 4.069608779972E+02
 4.037856231315E+01 5.468757694854E+01 1.783316189770E+00 1.018408944825E+02 -1.717138588689E+02 5.251252777318E+01 -4.116784351416E-01 8.095686556758E+01 -1.745263088909E+01 -3.155175511133E+01 3.058328516708E+01 -4.891603839779E+01 -3.706863263498E+01 1.334402768057E+01 -1.990347214039E+01 5.630817454016E+01 -4.432626753618E+01 -9.780732450505E+01 -5.992893111966E+01 4.626489680306E+01 -1.345918834509E+01 -3.654376790896E+01 -1.493680247780E+02 1.284889287796E+01 -4.780903374660E+01 -2.026163003662E+01 3.200546126823E+01 -4.456512217490E+00 6.937029747910E+01 1.127717259271E+01 2.172046475888E+01 4.646182858180E+01 1.033545432226E+02 7.352588221304E+01 2.425955305758E+03
 1.153800900505E+01 -6.540718930595E+00 -1.313760214374E+01 -8.621598148180E+01 6.096881042627E+01 -3.683951233071E+01 1.411813440731E+00 6.933476959641E+00 1.908344376247E+01 -9.092497273458E+00 -2.008161762771E+01 1.454579546563E+01 -4.077636247184E+00 1.514576911902E+01 -4.114335247279E+00 -8.173606507327E+00 4.747808190933E+00 -6.443358960478E-01 1.929217603025E-01 -8.784758865517E+00 2.372447825860E+01 1.068165698182E+01 4.819117510213E+01 -4.668125907208E+00 -3.867144633671E+01 3.973138690603E+01 -2.486505949142E+02 1.490579018354E+00 -2.083163811678E+00 -1.637199555359E+01 1.118805018984E+01 -1.355574053473E+01 -4.654370846371E-01 6.699265533183E+01 1.196371146660E+03 1.347840496626E+03
 -4.162203499218E+01 -6.188010561297E+01 1.139836875008E+01 4.556964605461E+01 1.068323084141E+02 -2.900233319440E+01 1.751893382915E+00 -7.922465221822E+01 2.651396060736E+00 4.621276190882E+01 -3.915328317558E+01 5.611365324513E+01 3.449405090340E+01 -2.315108558133E+01 2.377633676532E+01 -5.599855313672E+01 7.410660219745E+00 1.113955063787E+02 5.939646536693E+01 -4.203418848886E+01 1.177917782345E+01 -4.221448305606E+00 7.793479445302E+01 5.549670344270E+01 -3.167460466358E+03 1.775749004987E+02 -3.975597936987E+02 4.766511592881E-01 -6.408923394340E+01 -1.122528711909E+00 -2.414900600189E+01 -3.493910037856E+01 -8.386957796021E+01 -5.313242880590E+01 4.324693575015E+01 1.089422562751E+02 3.448011263813E+03
 3.359676062176E-01 2.941115262668E+01 1.454700303606E+01 1.902060092711E+01 -4.705391586657E+01 2.595332396904E+01 -2.705730455096E+00 2.002883019207E+01 -2.825036844130E+01 -2.084390415039E+00 3.157696694964E+01 -3.521951549419E+01 -7.088010906387E+00 -1.427499857515E+01 -3.488330598418E+00 1.128328079687E+00 -1.898651929721E+02 1.049716518712E+02 -2.425291344648E+01 2.446074229752E+01 -3.371376189311E+01 3.322490970339E+01 -1.420100459012E+02 -1.016418325822E+02 1.248841109604E+02 -4.523912071559E+00 3.032758765206E+01 1.093754803888E+00 1.942742120014E+01 2.569398750056E+01 -6.657852343899E+00 2.247165066855E+01 4.111548413886E+01 -1.703500001730E+01 -2.039635907126E+01 2.434927982307E+01 -2.116910662052E+01 5.472631356686E+02
 -1.676331314627E+01 1.257502920948E+01 1.506681084516E+01 3.789663495000E+01 -5.594875668687E+00 1.161769276733E+01 -2.721904886130E+00 -1.353723246199E+01 -2.036866685231E+01 1.280351568412E+01 1.316500845760E+01 -7.580059789652E+00 8.949378749055E+00 -1.983976908398E+01 3.369317958210E+00 2.501490866983E+01 1.440984357118E+02 -9.608847309278E+01 -5.244156493288E-01 4.640103476305E+00 -2.581704858123E+01 2.291062885652E+01 -7.517989455681E+01 -5.483285673094E+01 -4.190797495114E+02 3.373366470984E+01 -3.688436074903E+01 2.802440945185E+00 -1.350834958658E+01 1.426344140378E+01 -1.469665594724E+01 -3.133865419278E+00 1.004411992493E-01 1.192700054424E+02 4.490523594485E+01 -2.443529825472E+02 4.042274888541E+02 -2.960462756855E+01 6.296747112489E+02
 2.306672387495E+01 2.877108198894E+01 -2.047673283970E+00 -5.344342501676E+01 -9.717286633342E+01 -5.213379115823E+01 -1.171346236342E-01 3.739703425145E+01 -2.446355327648E+00 -1.911060207262E+01 1.889783503234E+01 -3.143647221063E+01 -2.129443420507E+01 9.201346849879E+00 -1.101049654389E+01 3.014778757840E+01 -2.625886870267E+01 -5.278918215083E+01 -1.559424686579E+02 2.988315271804E+02 -5.002857082842E+02 -4.194799391471E+01 -4.346383938110E+00 3.157124511060E+01 -3.863819582761E+01 -1.152498857128E+01 -9.449224727295E+00 -3.164016749338E+00 3.907782357463E+01 2.973814958124E+00 6.648698860203E+00 2.665821567470E+01 5.289576952489E+01 -3.472191516864E+00 -3.917143088769E+01 8.819467392230E+00 4.002878769449E+01 -1.589434190634E+01 2.004187108302E+00 9.627725319853E+02
 -2.440059287393E+01 -2.782502445626E+01 3.584795899901E+00 -2.716853988969E+01 -4.266511918111E+01 -1.229145842630E+02 -1.121471286316E+01 -5.273845049142E+01 1.412163381180E+01 2.079488950619E+01 -1.948103830319E+01 3.290088171792E+01 1.802613437108E+01 -7.865093031078E+00 1.756760731711E+01 -2.730383242966E+01 2.003256017202E+01 5.200654919300E+01 3.081774326786E+02 -6.143478863159E+02 1.058835532987E+03 1.914877684947E+01 1.023360346789E+01 2.922083928684E+00 3.255763329253E+01 1.032123450913E+01 8.305207218956E+00 3.025674534979E+00 -3.411535119303E+01 -6.438746700195E-01 -1.511060211932E+01 -2.556530745644E+01 -5.166488478829E+01 4.849402614966E+00 3.227227889437E+01 -1.580488958166E+01 -3.342033446399E+01 1.631715811378E+01 -1.930669480922E+00 -9.401646782168E+02 1.621701512952E+03
 -7.545841882348E+01 -6.005821208896E+01 1.702241157231E+01 4.027803070625E+01 -3.369643009053E-01 -1.541130897905E+02 6.246803084923E+00 -1.162239121996E+02 -7.218045624188E+00 5.511839844183E+01 -4.406475344418E+01 6.450302500917E+01 6.783119163875E+01 -5.455780671250E+01 1.394508808803E+01 -6.505696607431E+01 6.175257527253E+01 1.311855745981E+02 -4.339206291925E+02 1.013529627495E+03 -1.898913449247E+03 6.774461412455E+01 2.177633480188E+01 -4.164459973887E+01 8.468288077631E+01 3.815687559490E+01 3.838584664319E+01 8.132593214199E-01 -9.637475746798E+01 1.529194144389E+01 -5.099176779160E+01 -4.860016568949E+01 -1.062253911629E+02 9.640397000549E+00 1.209999923750E+02 -8.259707388479E+00 -9.708752067848E+01 5.759925110577E+01 1.375335977857E+01 2.737287265530E+02 -7.230734803055E+02 2.103625059874E+03
 -8.103541898674E+01 -1.624249609533E+01 1.080484041295E+02 1.301074583397E+01 3.545727755811E+01 -1.353666169838E+01 -8.217231290405E+02 9.370305273960E+02 -8.768916441796E+02 1.255516174152E+01 -1.839475125973E+01 2.409836308481E+01 6.507971312532E+00 -8.463984018301E+00 2.982289911060E+00 -2.131886336198E+01 1.897996195664E+01 3.352311242445E+01 -6.415273505835E+01 -2.960496531524E+01 -9.260786843063E+00 -6.483126667659E+01 -1.229264410919E+02 -1.143249913608E+02 2.639869353949E+01 6.959601626876E+00 6.101566167181E+00 1.494814327247E-01 -2.956149688633E+01 -3.688230720779E+00 -8.324566636443E+02 1.221735951153E+03 -2.919593109240E+02 2.539250577425E+00 2.858918402919E+01 6.400735361207E-01 -2.708192574763E+01 8.775571554763E+00 -2.622395961896E+00 -9.430844066930E+01 -6.891281138724E+01 4.964011692260E-01 1.977244835953E+03
 -1.614909816960E+01 -3.693845980571E+01 -3.088509733233E+00 1.482131126496E+01 6.010273442974E+01 -2.053781595115E+01 9.690059545033E+02 -1.181876706124E+03 1.053847881495E+03 1.821535933865E+01 -2.949176216101E+01 4.222141105208E+01 2.900161068867E+01 -1.051938837428E+00 1.034731817380E+01 -3.568292235340E+01 2.715104717720E+01 5.658725865203E+01 1.989117022294E+01 -3.082356817937E+01 4.463374546479E+00 -1.150249526041E+02 -2.420279261098E+02 -2.159398802201E+02 4.297199973094E+01 5.530143948692E+00 3.014176241633E+00 5.755720833143E+00 -3.953981174745E+01 -1.161658212889E+01 1.246947243108E+03 -1.930362031833E+03 3.197656821333E+02 6.682962083307E-01 3.785935426052E+01 7.651223273578E+00 -4.333669597536E+01 6.873074667878E+00 -8.756491006478E+00 -2.773706764617E+01 -5.246200624715E+01 -4.496955219230E+01 -2.010700723944E+03 3.369765872510E+03
 6.639540271470E+01 -4.282285648202E+01 -1.822416201900E+02 2.931532604654E+01 8.367791970866E+01 -2.523233866128E+01 -8.897146476689E+02 9.853446206505E+02 -9.493248710040E+02 3.315762166405E+01 -3.801981154223E+01 5.394406610836E+01 2.503296303232E+01 -1.592432299140E+01 1.387455206566E+01 -4.646014741088E+01 3.409747028485E+01 8.112487927513E+01 2.672344968614E+01 -4.506107261047E+01 1.244385253937E+01 -1.071676752173E+02 -2.134461969531E+02 -1.946213420554E+02 5.534608230016E+01 1.475278696502E+01 1.071772114924E+01 -1.612466201321E+00 -5.958772335533E+01 -1.042867106325E+01 -2.555143930980E+02 3.271329308883E+02 -1.523207811183E+02 6.023428028552E+00 6.732457226698E+01 3.352773877627E+00 -5.369848810872E+01 1.928220453753E+01 -6.599280609445E+00 6.764687177961E+01 -1.342770151142E+01 -1.008323969578E+02 1.106543464629E+03 -1.219667717595E+03 1.430108236692E+03
 -1.400592331980E+01 -6.298420227560E+01 -1.189965225064E+01 -5.536222196868E+00 8.501161346813E+01 -3.823535795930E+01 -6.844406201498E-01 -4.693430525116E+01 2.986183198537E+01 1.633333251510E+01 -5.045429218238E+01 6.039318065036E+01 2.290926543636E+01 5.912308028213E+00 8.943491272476E+00 -4.740351993839E+01 3.611616160068E+01 6.891484139800E+01 4.233033610696E+01 -3.952000313009E+01 3.674528641419E+01 -7.947604835540E+01 8.546214979122E+01 6.200930903363E+00 6.634474016601E+01 -5.708038775660E-02 -1.828644390918E+00 1.373879257758E+00 -5.058399712466E+01 -2.624316003246E+01 -9.332781254670E+01 2.873952337466E+02 1.245505892025E+02 -1.101983562672E+02 3.751877901623E+00 2.651073975407E+01 -1.311840348873E+02 -3.807577666273E+01 -1.247100200689E+02 2.804517936602E+01 -2.903096151445E+01 -8.856303463710E+01 -7.633168970465E+00 -4.559745379694E+01 -3.543121439174E+01 4.788685549829E+02
 9.808963950915E+01 6.295199238716E+01 -2.416043225082E+01 -1.134604129086E+02 -1.261851504285E+02 2.328225240509E+01 4.531320085988E+00 1.368703271831E+02 6.745089642962E+00 -6.949993568245E+01 4.232830226143E+01 -7.965592850611E+01 -7.116003055335E+01 5.687372713561E+01 -2.957181819364E+01 7.312911277028E+01 -6.208573885994E+01 -1.489334286186E+02 -7.794804510493E+01 5.882517497669E+01 1.675815732079E+01 4.525452530943E+01 -7.926185542258E+01 -1.791286150159E+01 -8.810229415409E+01 -4.189633540234E+01 -4.183626819877E+01 -4.907035268710E-01 1.034700747317E+02 -2.489049223507E+01 3.540433857040E+02 -1.123620793148E+03 -6.460814154087E+02 -5.910822733347E+01 -1.311951330536E+02 2.996134197147E+01 6.084517174307E+01 -8.204764550979E+01 -6.105249297263E+01 -6.082868807323E+01 5.935341441646E+01 1.180386995863E+02 6.004918410209E+01 7.151550813098E+01 9.456762397562E+01 -1.968431772444E+02 1.845417759042E+03
 1.707334378855E+01 2.407090144388E+01 -1.168738085842E+01 -3.425964026581E+01 -2.926923274434E+01 3.190254496137E+00 -1.726453557214E+00 3.966917783017E+01 6.353696485963E+00 -2.183637188650E+01 7.851358464551E+00 -1.885304250672E+01 -1.812899575356E+01 1.911758861515E+01 -8.524479737461E+00 6.396657087743E+00 -1.527373227303E+01 -3.383815628480E+01 -1.908767235572E+01 1.294038346963E+01 1.032786624607E+01 -3.553494883033E+01 1.215589242167E+01 -1.805731401892E+01 -2.770245654556E+01 -1.211865764234E+01 -1.521518276513E+01 -1.815848856755E+00 2.499929518163E+01 -6.582249434859E+00 2.181172211024E+02 -7.547940625878E+02 -4.690755084134E+02 7.481845070173E+00 -3.024183351719E+01 6.326881303611E+00 -7.683657659111E+01 -7.036809718410E+01 -1.442104878142E+02 -1.195609706282E+01 1.028558379916E+01 2.363723172920E+01 2.088675941381E+01 1.917797756939E+01 2.315749835740E+01 -1.170287898432E+02 -5.258745332622E+01 1.614561969332E+03
 3.568356035969E+01 2.781842765258E+01 -1.086851397966E+01 -3.966602604274E+01 -6.723962422169E+01 3.387844517386E+01 1.889574078263E+00 5.802304558854E+01 1.869773603112E+00 -2.832139891562E+02 9.114906071124E+01 1.961711556092E+02 -3.258087857570E+01 3.629850195285E+01 -9.969216742028E+00 -9.110593714789E+02 -1.360521228349E+02 8.400386716082E+01 -3.496228644218E+01 2.910667243466E+01 2.188022321298E+00 -2.699811358268E+01 -2.504200092474E+01 -5.953148975090E+01 -4.211694819848E+01 4.080243798877E+01 -5.947075293764E+01 -1.492825777550E+02 -1.454450648618E+02 -6.373790297131E+01 2.318914835487E+01 2.620284406912E+01 5.628261079768E+01 -4.958918448521E+00 -5.171053707105E+01 8.096924839744E+00 -3.466859891345E+00 1.135713566098E+01 -3.570685271102E+01 -2.656537728284E+01 2.481890615265E+01 5.754427874255E+01 1.716622611612E+01 3.278911717116E+01 4.168631192220E+01 4.276892629622E+01 -6.174755035420E+01 -1.398073846425E+01 1.384673429682E+03
 1.466731174726E+00 8.886756308975E+00 4.246240508832E+00 1.192238807700E+01 -2.430828029344E+01 2.602777818872E+01 -1.529762585615E+00 7.124965031738E+00 -1.026380216364E+01 5.088594135392E+01 5.563068821724E+00 -8.155204147950E+01 5.937179326596E+00 -1.322421475941E+02 -5.474663122793E+01 -9.789403763464E+01 -2.015564464389E+01 5.218674165938E+00 -9.177810579412E+00 8.175670299370E+00 -1.126945647341E+01 -1.115336929557E+01 -5.959256135219E+00 -2.248360595784E+01 4.895212657236E+01 -1.150057756887E+03 7.135091059845E+02 -1.965065183465E+02 -2.441662958412E+02 -6.766369479020E+01 -2.449138030683E+00 9.361366255119E+00 1.465846591104E+01 4.897712470846E+00 -4.110138682097E+00 -7.129590612548E+00 5.003970631347E+01 -3.275057312023E+01 3.549665699942E+01 -5.394871692273E+00 5.696171151887E+00 1.829455334841E+01 2.704871429096E+00 1.800677381051E+00 7.014077852006E+00 -3.059590624680E-01 -2.314772352705E+01 -8.845306364804E+00 1.303881236963E+02 1.595098650473E+03
 1.567508663116E+01 2.971022025900E+01 1.103060751066E+01 -2.939914767289E+00 -5.314216601437E+01 1.726292737424E+01 -1.623876993349E-01 2.965781900241E+01 -1.781396720046E+01 2.428391777907E+02 -2.364590638827E+01 -2.900632059325E+02 -8.224002268406E-01 -5.714849936522E+01 -2.701740354103E+01 1.621784257778E+02 -3.695608287900E+00 -5.677494940325E+01 -2.332216960127E+01 2.238548415406E+01 -1.561089188173E+01 -4.897583703239E+01 -2.878632074850E+01 -1.227052111598E+02 -6.247893876449E+01 7.116345739345E+02 -4.374337847332E+02 -6.728105040218E+01 -4.276718799346E+01 -9.670671802368E+00 4.840016236192E+00 1.997243956758E+01 3.881217679901E+01 -3.224461354378E+00 -3.152325449904E+01 -8.182481126739E+00 -1.483993950606E+00 2.751716467039E+01 -8.989223857066E+00 -1.671623855559E+01 1.742785456156E+01 4.674801493811E+01 8.853716184678E+00 1.453042301917E+01 2.514987789758E+01 1.028910467290E+01 -5.624590520085E+01 -1.532054631249E+01 -2.565039864929E+02 -5.560492477151E+02 8.742977313591E+02
 -1.891165685432E+01 1.019179043279E+02 -7.517761039067E+00 8.216540270053E-01 6.305882834422E+01 -2.826135020970E+01 3.140539272430E+00 -4.298057426677E+01 2.531817936812E+01 1.408070141227E+01 -3.701501609388E+01 4.551336021026E+01 2.240422848215E+01 1.515569417032E+00 5.876544033065E+00 -1.562284743895E+02 3.070798364740E+01 -1.654069014069E+02 3.322677895283E+01 -3.188366056228E+01 2.453426885978E+01 -4.475887879580E+02 5.155549084075E+01 1.798306210767E+02 4.393353303054E+01 2.541361165654E+00 -2.224512156348E+00 -4.980900041404E+01 4.929147916406E+00 -5.438039098541E+01 -1.330987717214E+01 -2.166365152983E+01 -1.836656814847E+01 1.442552017488E+00 3.949214444687E+01 1.141348975192E+01 -1.264112083404E+02 -1.133578187025E+02 -4.545481712895E+01 2.201897172970E+01 -2.421520480214E+01 -6.665597048361E+01 -1.726275282420E+01 -1.566143407010E+01 -3.092977120254E+01 -1.666061780633E+01 5.305878960452E+01 5.511789161936E+01 3.156780483642E+01 -3.602172489577E-01 8.000210406182E+00 7.200385133718E+02
 1.263648358781E+02 -2.364379998430E+03 -9.703364122128E+00 -3.058371249332E+01 -2.541578977258E+01 1.342751163367E+00 2.864475277594E+00 2.953380319695E+01 1.290107125087E+01 -1.810434653007E+01 5.753033152062E+00 -1.556994980783E+01 -1.605919318890E+01 1.538705354592E+01 -3.587025984747E+00 1.369289702902E+01 -1.064333641798E+01 -3.134088830299E+01 -1.594507663464E+01 1.178871577572E+01 7.275084126941E+00 2.638158565197E+01 -1.558721593698E+01 -1.635324255705E+01 -1.788659736935E+01 -1.224202499045E+01 -1.464577041469E+01 4.062187074795E+01 -2.493268455972E+01 3.273949036528E+01 1.870767372797E+01 4.121595003267E+00 -6.329219968904E+00 1.502036740922E+00 -2.797771401585E+01 4.583871940279E+00 -8.942106066806E+01 -1.761290417475E+02 -5.745002484778E+01 -1.358056661125E+01 1.186382942784E+01 2.367539749658E+01 1.255470953988E+01 7.802416852615E+00 1.198803009315E+01 3.243291134683E+01 -7.423042525319E+02 8.168570139466E+02 -1.404582095737E+01 -7.027082652281E+00 -1.686225529767E+01 -6.287789298027E+01 3.327062332734E+03
 1.680995787930E+01 -1.687598475515E+01 -8.530020472062E+00 -2.325295241607E+01 -2.695870515506E-01 -4.454013210889E+00 3.758877132882E+00 8.684491990426E+00 9.305449752250E+00 -6.280843462108E+00 -4.416687842819E+00 -3.889493529979E-01 -1.303968947607E+01 1.357589384101E+01 1.205349570673E-01 -2.132586989545E+02 -1.331534589737E+00 -4.141937785398E+02 -7.678113628947E-01 -4.030774756595E-02 1.343396006741E+01 1.555850233023E+02 -1.088172355920E+01 -4.806249655313E+01 -7.344972404695E+00 -9.095377728536E+00 -9.749962910776E+00 -2.640378501507E+01 3.522400541921E+01 -3.888298356119E+01 4.513374385101E+01 -2.571161796669E+01 -2.189178829834E+02 -2.574384927077E+00 -5.842253719874E+00 8.206734270730E+00 -1.451291399960E+01 -5.572117920699E+01 -1.937491959518E+01 -2.054387885408E+00 3.024981854236E+00 -5.370781583529E+00 9.428946835464E+00 -1.695851087196E+00 -2.601837302139E+00 2.285554400542E+01 8.320505156270E+02 -9.510425663100E+02 1.726010264990E-01 -2.020817364255E+00 -9.561423705988E+00 6.884705351901E+01 -7.584205806395E+02 1.691687626979E+03