#BIOSYM hessian 1
@Type: Hessian Update
@Units
 distance: 	A
 energy: 	Kcal/Mol
#header
@natom 19

#label
L1      L2      L3      L4      L5      L6      L7      L8      L9      L10     L11     L12     L13     L14     L15     L16     L17     L18     L19

#element
Li Li Li Li Li Li Li Li Li Li Li Li Li Li Li Li Li Li Li

#matrix
57
 2.229999476229E+02
 1.719742792160E+01 1.187864514318E+02
 -9.795396178215E+00 -3.453095506129E+01 3.263479505229E+01
 -6.780557661590E+01 -6.737099856362E+01 1.682887694205E+01 1.136601933900E+02
 -7.127367570029E+01 -6.267713524167E+01 7.069957479466E+00 1.475597406439E+01 2.596560701066E+02
 2.041611694529E+01 6.313131655335E+00 -2.477154398669E-01 -6.209667341761E+00 6.285396711838E-01 3.594439941576E+01
 -2.113566478690E+00 -8.574920525953E+00 7.067865900779E+00 -3.930335434169E+00 4.486015483899E+01 1.540781449315E+01 1.714870049227E+02
 1.192424288402E+00 -4.375358189032E+00 4.740520835349E+00 3.978136461922E+01 -1.792292265152E+02 -2.783224986680E+01 -6.710916917439E+01 2.096259582873E+02
 3.508842131146E+00 -1.120163526614E+01 4.406489700288E+00 1.247728880774E+01 -2.714688899906E+01 -1.384418494781E+00 1.187508952087E+01 3.570518788836E+01 3.259375572182E+01
 1.732954727884E+00 5.090734823907E+00 -3.464210632448E+00 -5.635137946121E+00 -1.960984534747E+00 -3.707580044121E+00 -1.362064485142E+02 4.235286980853E+01 4.220354054303E+00 2.216067525754E+02
 4.942406076951E+00 -9.637887036604E+00 9.925563236866E+00 3.187826219567E+00 -2.146652580626E+00 8.511209204338E+00 4.358618888304E+01 -7.857486859266E+00 8.210532790638E+00 2.478018031764E+01 1.184542343133E+02
 4.499361438867E+00 -9.651607144431E+00 4.223953752318E+00 5.861615073525E+00 -4.345257321302E+00 9.453834633514E-01 3.346644707921E+00 6.302560526316E+00 5.742923813710E+00 1.369969794887E+01 3.427541212595E+01 3.422325254998E+01
 -5.653007648855E+00 4.874746193653E+00 -7.538827516043E+00 -2.555588293288E+00 3.327107619648E-01 -7.801506031522E+00 -4.706269953560E+00 -2.475718073092E+00 -7.495297077860E+00 -7.129420448223E+01 -7.243691129203E+01 -1.893757953480E+01 1.152602082033E+02
 -2.862213058049E+00 -1.052761243181E+00 3.834867046191E+00 5.975957679312E-01 8.667795638755E-02 3.863210237475E+00 -9.349400558746E-02 -3.594349417734E+00 1.888266700279E+00 -7.547134721940E+01 -6.815185376957E+01 -9.340010161346E+00 1.694276998976E+01 2.748912442925E+02
 5.005775515352E+00 -1.051359559044E+01 1.518089712477E+00 8.275191660618E+00 -4.419802794965E+00 -1.305350693924E+00 8.557520559797E+00 6.756147052163E+00 2.291188989293E+00 -2.189856386002E+01 -6.019390941717E+00 5.022455153853E-01 8.179814912279E+00 -2.438076493797E+00 3.591694117289E+01
 -1.406068998620E+02 4.493380487674E+01 -4.004027051664E+00 -3.630052266632E+00 8.450950987425E-01 -7.109615989631E+00 -3.907326409168E+00 -1.879376485239E+00 -7.865707658094E+00 -1.924648205423E+00 -7.881348975439E+00 -6.214903849420E+00 -3.630286015038E+00 4.931055932489E+01 -1.729861482721E+01 1.765065402641E+02
 4.604602419113E+01 -1.145150540867E+01 -5.355752787836E+00 -9.628729104551E-01 -3.365480933347E+00 -5.812921262589E+00 -3.723601581781E-01 1.718265478712E+00 -4.725912708273E+00 1.098209333999E+00 -1.601126495875E+00 -3.393422162378E+00 4.156531947427E+01 -1.906942032599E+02 2.999617648162E+01 -7.334067435221E+01 2.215872324054E+02
 -5.561330729756E+00 -7.050139788415E+00 5.357213959869E+00 6.564798094472E+00 -2.727396517288E+00 1.210429937938E+00 7.801040833476E+00 5.827129758711E+00 5.158876521638E+00 -2.517195798269E+00 1.060752338422E+01 4.056096212761E+00 -1.377376659932E+01 2.760632978838E+01 -1.123785214504E+00 -9.457403747135E+00 -3.736140842086E+01 3.296226581029E+01
 -2.596825420518E+00 4.044609148711E+00 -8.095443813707E-01 -2.476039175788E+00 2.331033376765E-01 -1.855680100724E+00 -2.062448261020E+00 -1.535011830400E+00 -1.877259084385E+00 -7.007791790126E-01 -4.104561777851E+00 -8.099006635091E+00 2.930186272770E+00 -6.781866294091E+00 -6.192266686653E-01 1.775675810825E+00 5.606607321245E+00 -2.296525632166E+00 1.436486118837E+01
 -9.080887015310E-02 -7.458656988004E+00 3.074917349279E+00 6.442506476338E+00 -1.898908145236E+00 7.671624312123E-01 5.361007578628E+00 5.094103471205E+00 3.163360676273E+00 -6.019682399019E+00 4.431357810850E+00 -1.011106436823E+00 -6.438643918771E+00 3.780775849606E+00 3.178952865370E+00 -2.917572838240E+00 -5.680370386805E+00 3.789088127292E+00 -3.368424332198E+00 2.778915703087E+01
 -3.264385825944E+00 4.888289089686E+00 -1.672099807307E+00 -4.259408772663E+00 5.239873840289E+00 -7.653903382622E-02 -7.297928732867E+00 -4.746409799894E+00 -1.933788945358E+00 -4.498444096768E-01 -8.199473094562E+00 -2.124231778540E+01 4.507053898022E+00 -3.248022909973E+00 -5.197210279854E+00 4.002533363645E+00 4.218736823533E+00 -1.519896368199E+00 5.879317860501E+00 3.271228288753E+01 7.761161326646E+01
 -3.657377778863E+00 8.562162060734E+00 -2.930290505788E+00 -5.662055469984E+00 1.640482720564E+00 -9.843949415293E-01 -5.351032586854E+00 -4.220531369196E+00 -3.753929675940E+00 -1.876956035315E-01 -8.740535569410E+00 -2.924837110009E+00 5.235253101020E+00 6.427530917322E+00 -1.134301687163E+00 9.290319589827E+00 -2.340269582677E+00 -2.763662803776E+00 -2.773149727467E+00 3.322731470332E+00 3.633403582892E+00 9.846276907748E+00
 -3.695436374019E+00 5.161116864303E+00 -1.509944710130E+00 -3.943289742885E+00 -4.696741944640E-02 -1.927732819375E-01 -1.675341057581E+00 -1.732170189307E+00 -3.605939812094E-01 1.079779046779E+00 -3.784715472460E+00 -1.223637233034E+00 2.805819854727E+00 -8.201565183455E+00 -1.486190340407E+01 6.924978258939E+00 -2.991664730976E+00 1.238517133352E+00 1.972182809360E+00 -3.200660621218E+00 -1.020707015622E+00 -3.535287260628E+00 2.157336411563E+01
 -4.721193625972E+00 4.329815277762E+00 -8.524927269883E-01 -1.708103590257E+00 2.102374156146E+00 2.159621724236E-02 -5.003496751658E+00 -2.514355264994E+00 -1.615793445691E+00 3.773864991524E+00 -5.852136859935E+00 -1.247071567217E+00 1.003967872941E+00 -1.137510889198E+01 -2.218838113693E+01 7.565596689694E+00 8.546353018279E-01 -6.994670647854E+00 6.814687058326E-01 -4.131743246449E-01 8.829062675627E-01 9.752319036623E-01 8.099178634557E+00 3.648223384017E+01
 -6.774281092693E+00 -4.472533852934E-01 -1.764427195227E+00 6.932610585262E-01 7.603470775758E-01 -1.916398345860E+00 -1.155925720194E+00 1.408600292973E+00 3.123250129777E-01 1.431994321123E-02 -2.208939517006E+00 2.051535398113E-01 3.928225317839E+00 -4.271699163833E+00 2.051332157594E-01 -4.376505271269E+00 8.263201796511E+00 7.455300425322E+00 5.121402777628E+00 -3.998460912003E+00 4.487258085547E-01 -4.832153191376E+00 4.950825940476E+00 -1.026984506356E+00 1.671828809710E+01
 2.730468838413E+00 1.336909483748E+01 -5.153788589026E+00 -1.169334363012E+01 3.406728253994E+00 -4.835432612455E-01 -9.014443692765E+00 -9.699161752130E+00 -6.427473058059E+00 4.494918563439E+00 -1.038023024801E+01 -4.802134048638E+00 9.047445770374E+00 -6.387455360643E+00 -1.354207847749E+00 8.871972571716E+00 7.484764158045E+00 -1.292969612878E+01 1.740913917689E+00 -4.173050114150E+00 1.875471784388E+00 5.395227077702E+00 -5.419841895097E+00 3.621741794982E+00 -4.920302761611E+00 2.089906179756E+01
 7.896465364450E-01 -5.935060838226E-02 -6.329014555707E+00 -6.389705090892E-01 4.666901896010E+00 1.244084492939E+00 -1.030435421352E+00 -3.091029059234E+00 3.019621842671E-02 5.713744601683E-01 -4.022256834224E+00 -9.790063944711E-01 2.608263586620E+00 -1.368222450703E+00 1.153989665129E+00 3.133145775262E+00 -2.630346209274E+00 -1.498396208371E+01 -1.405565221133E+00 1.916538014899E+00 -1.062656375603E+00 9.885223159239E-01 2.223544047099E+00 -4.832600810884E-02 -8.077469497740E+00 -1.335375018390E+01 8.294974547646E+01
 -4.423406751120E-01 -3.601927126320E+00 7.127356616671E+00 1.477715403094E+00 -6.678809270698E+00 -3.584061403435E-01 1.149951348006E+00 5.564139198555E+00 2.147604087252E+00 -1.587898084038E+00 3.466623360230E+00 1.097160838006E+00 -3.078499973507E+00 -2.338103740374E-01 2.405625362077E+00 -1.778755507112E+00 -1.205716033706E+00 1.536196607304E+00 -6.632067074138E+00 3.854056171214E+00 -2.430769814210E+00 2.674222272377E+00 -2.434712712427E+00 -1.292692604765E+00 -9.400377532649E+00 -1.267990595642E+00 1.079106199447E+00 1.469426731819E+01
 -7.067737138878E+00 4.983299961274E+00 5.199090960430E-01 -5.483295541954E+00 3.596538190685E+00 -2.569256411802E+00 -2.871785793914E+00 -6.208743469534E+00 -4.012675873432E+00 -1.051969100705E+00 -7.405532997808E+00 -3.270002704984E+00 7.759951377690E+00 -1.511225856478E+00 -1.786348590695E+00 4.971523427422E+00 3.221896356115E+00 -2.682258788640E+00 4.069242039197E+00 -4.338258437628E+00 1.250713239491E+00 -2.112634954070E+00 6.045986113347E+00 1.081349650314E+00 3.992108676314E+00 -1.128728970867E+00 1.104518641766E+00 -3.403541792376E+00 2.955209757208E+01
 -2.761959391608E-01 9.200950149856E+00 -1.913355766398E+01 -6.224598614100E+00 3.104592877014E+00 -5.600611023370E+00 -5.594658148788E+00 -5.045278235006E+00 -1.562376192803E+00 3.719593205197E+00 -6.222240613855E+00 -1.751313144000E+00 6.032441016208E+00 -5.585658870402E+00 2.436752489390E-01 9.005682386805E+00 6.488261376373E+00 -2.222147932979E+00 2.255816403178E+00 -2.420970427758E+00 4.463695233598E-01 1.832027733773E+00 -9.031157030134E-01 9.749702941190E-01 1.053504508774E+00 4.537577506008E+00 -1.368503170232E+00 -5.497716298015E+00 -3.306081103302E+01 7.862718998118E+01
 7.998638568863E-01 -8.480541662091E+00 2.894991342490E+00 5.989129410528E+00 5.375857593443E+00 1.873847270149E+00 8.637568328439E+00 -2.824354364323E+00 1.799966082142E+00 -3.293344309694E+00 8.596430132685E+00 2.709647070043E+00 -7.056653020202E+00 7.609180288449E-01 1.258282511625E+00 -4.715971382894E+00 -2.505963847607E+00 2.401455906494E+00 -4.083255100959E-01 2.266814315829E+00 2.754142248541E-02 -8.834484442228E-01 -3.466822233006E+00 -1.542460541310E+00 -7.569766605991E-01 -1.937895450716E+00 3.982765134375E-01 -5.425660400025E-01 -6.760092401756E-01 -2.234436418460E+00 5.707147539282E+00
 1.111283776651E+00 -3.822491626480E+00 1.930900873122E+00 1.286628427766E+00 -8.848868013629E+00 1.424846745099E+01 6.746686861840E+00 -1.443299507234E+00 -4.049462973617E-01 -2.529475837835E+00 4.610493341181E+00 1.082921192869E+00 -3.941447473590E+00 3.733725002047E-01 -2.662007204653E-01 -1.707154602245E+00 -1.282772317749E+00 4.135577598201E-01 8.823678783753E-01 1.756526115814E+00 1.450252360939E+00 2.647219494441E-01 -4.554922089636E+00 4.760265985080E-01 -5.297256886303E-01 6.499173992629E-01 -8.364612299763E-01 -1.415637892894E+00 -1.113588191605E+00 5.451867782518E-02 2.718447248163E+00 1.588677333574E+01
 -2.827073640178E+00 6.067779113111E+00 -7.820613257384E-01 -1.312376317398E+00 1.180476313904E+01 -2.284868850860E+01 -7.739759089987E+00 -9.669742563198E-01 -5.876032802436E+00 4.633806049529E+00 -4.563986675196E+00 -5.072806312580E-01 3.009703232096E+00 -2.151611578947E+00 -2.715579257730E-01 5.099645432376E+00 3.547509003534E+00 -1.497032458532E+00 2.935145347093E+00 -2.601093159767E+00 9.295065188927E-01 2.214197432134E+00 1.908130144296E-01 1.490051494007E+00 1.259370054932E+00 3.932097211309E+00 -4.836813854170E-01 -2.578361478019E+00 3.019482590146E-01 2.167249405668E+00 3.182805263015E-01 -1.209482244066E+01 3.573191975256E+01
 -3.272982207256E-02 -3.356793637681E+00 -5.940514067972E-02 3.602910332707E+00 -3.965351892968E+00 -9.771323854473E-01 -3.371977999304E+00 9.297553697087E+00 -6.669847409982E+00 -6.835396099971E+00 4.447691339244E-02 2.406377060426E+00 5.501518675193E-02 1.773096441880E+00 1.775871726031E+00 -2.502698776722E+00 -1.431839986703E-01 6.007055872141E-01 -7.444264740161E+00 1.186646374150E+00 -1.510202573178E+00 8.430628163720E-01 -5.090060123204E-01 -3.386894687326E-01 -2.231052734500E+00 -9.833233987378E-01 9.610368452971E-01 3.337159309660E+00 -1.274727837585E+00 -1.785145560984E+00 4.047864613850E-02 -8.683668979621E-01 -1.616152240857E+00 1.300843406411E+01
 5.373674284705E+00 -1.014561966163E+01 4.497413405151E+00 8.752748470269E+00 -7.364780203686E+00 1.342631387285E+00 8.140916805627E+00 7.479679040987E+00 1.265757552475E+01 3.126723277654E+00 1.335476793822E+01 5.620510538660E+00 -1.280160386946E+01 2.405230785966E+00 1.332954953135E+00 -8.203344656386E+00 -8.240260773301E+00 5.327827211811E+00 -4.363543346054E+00 2.316771512726E+00 -3.403370871549E+00 -3.212143758001E+00 -1.004401376222E+00 -3.382269984820E+00 -1.369406835472E+00 -5.886029119595E+00 1.792000630372E-01 4.007471077375E+00 -6.281674588031E+00 -9.512539116416E-01 1.170452729725E+00 -6.186658003093E-01 -2.349682067677E+00 -4.090234396735E-01 1.625015786789E+01
 -9.849598482359E-01 2.593937552554E+00 -6.853566435005E-01 -1.108847342326E+00 1.191554074371E+00 9.937243626817E-01 -2.701858633729E+00 3.793924813143E+00 -1.509533053574E+01 -6.843494052830E-01 1.003681322510E+00 -5.977787120553E+00 -5.473801405793E-01 -4.186453297474E+00 1.645382442958E+00 5.244490169531E-01 2.376341747001E+00 1.640434458626E-01 -1.873678922385E+00 -9.502362170774E-02 -1.266314185682E+00 1.575934480116E-01 -1.032097068949E+00 -2.656917227979E-01 -1.719942874899E+00 6.734623759720E-01 -3.760517326155E-01 1.790902189993E+00 -2.398467579316E+00 -8.438196048661E-01 -6.891938617360E-01 -8.748025571658E-01 -2.513718523095E-01 7.246302158255E+00 8.990697517113E+00 7.276146968704E+01
 4.287028312715E+00 7.385495313554E+00 -3.744449203976E+00 -3.435628147609E+01 1.674501622044E+01 -6.312307458109E+00 -1.722978566843E+01 -2.178884853829E+01 -1.007433570268E+01 4.428897084889E+00 6.693783666479E+00 2.472581394722E+00 -3.070645343196E+01 1.615550694259E+01 4.339111008618E+00 -1.846467023264E+01 -2.339245370482E+01 1.017807611608E+01 1.029018263598E+00 -3.117024122982E-01 -1.077109215067E+00 -3.524008763330E-01 9.546455175429E-02 -5.812892662664E-01 1.761828547214E+00 -1.406502068318E-01 -1.624360844756E+00 3.929410320317E-01 1.154209659616E-01 1.315348443405E+00 -6.563935954178E-01 -1.022407817445E-01 2.758236787158E-02 1.379847921231E+00 -6.982553118632E-01 1.808463853369E+00 8.905988200813E+01
 6.543454321103E+00 -3.452601401657E+01 1.283229967234E+01 1.729156903255E+01 -2.637706008273E+00 1.152712680277E+00 -1.676622252969E+01 -6.190973787813E+00 -6.210256488829E+00 3.316107190510E+00 -2.732064574525E+01 -9.507606277958E+00 1.266891040066E+01 9.304128435432E-01 3.205881779375E-01 -2.228400063877E+01 -1.072779047957E+01 9.641608605274E+00 2.146435147623E-01 1.402404042943E+00 1.828443241823E-01 -1.138274536196E+00 1.210993548106E+00 2.638559244370E-01 3.621335386587E-01 -1.932379292599E+00 -1.771263545437E-01 3.732583584480E-01 -3.968679795426E-01 -6.516843336078E-01 4.584488790871E-01 1.257946947927E+00 -1.166964832841E+00 -5.067102959860E-01 8.198405750659E-01 8.760541118405E-01 -1.238171372325E+00 7.930052308050E+01
 -9.147708474478E+01 1.689853983346E+02 -8.276869576953E+01 -1.225738937140E+02 9.476018953646E+01 -1.895425560310E+01 -1.523810315040E+02 -1.325464127142E+02 -8.310156911787E+01 7.713034759681E+01 -1.660631196849E+02 -8.195266204111E+01 1.340824846806E+02 -8.929289448130E+01 -2.712981471655E+01 1.515577090809E+02 1.219115336292E+02 -8.002285149178E+01 3.385423047121E+01 -7.245140552615E+01 -2.727465313199E+00 2.660961215332E+01 2.383539309525E+01 2.819766535361E+01 7.819878436666E+00 7.346816498638E+01 -1.255094124360E+01 -2.815743850864E+01 7.330950309921E+01 1.970201017590E+00 -2.807072337503E+01 -1.962873246767E+01 2.732285012661E+01 -1.101879918751E+01 -6.998902023068E+01 -1.065453216322E+01 1.236650006509E+00 -2.427137835295E+01 1.366052444185E+03
 5.793153899739E-01 7.754228699285E-01 -6.706042847294E-02 -4.366899318689E-01 -1.506248020905E+00 -7.823788233521E-01 -7.254163328449E-01 6.389030561116E-01 2.353588007382E-01 3.193223106260E-01 -1.271725044454E-01 3.437224185086E-01 1.760602362142E+00 -1.682791560109E+00 6.189739146136E-01 -2.401584312117E-01 1.444471312871E+00 -1.342826479315E-01 9.405984309107E-01 -1.332051467021E+00 6.481663697568E-01 -5.205804156788E+00 2.534854650353E-01 1.360996570857E+00 1.897880314772E+00 -1.541062526121E-01 1.355963975541E+00 -8.844737493759E-01 1.262288956389E+00 -1.164864677901E+00 -3.712290724162E+00 -3.408080894612E+00 -1.407434440430E+00 -7.195214481723E-01 6.950807054396E-01 -1.883854396479E+00 -6.857206153003E+00 3.913909581172E+00 6.385855964114E+00 9.543582218705E+01
 -7.101052621389E-01 2.982844816686E+00 -1.138068809177E+00 -3.021301959764E+00 2.720359924188E+00 2.266613018758E-01 -1.787263061175E+00 -3.985844504448E+00 -1.772850342650E+00 3.020756993477E-01 -3.048439952101E+00 -1.139856058629E+00 3.142690237881E+00 2.037243011353E-01 -9.721226562457E-02 2.602589325912E+00 1.261115899690E+00 -1.168621443325E+00 1.081173572672E+00 -2.460873086458E+00 -1.722101008509E+00 -1.017814622313E+00 -1.341351986304E+00 1.442608556056E+00 6.663654500946E-01 1.666925155013E+00 9.699067408776E-02 1.004796426646E+00 -1.322177528577E+00 3.104450284062E+00 -2.094595081509E+00 -1.325812128134E+00 4.281613562452E-01 8.767812478792E-01 -1.965513278638E+00 -6.516791134630E-01 -3.688613255749E+00 -1.393248662412E+00 3.088660719515E+01 9.214982284191E+00 1.001894934022E+02
 8.126398293928E+01 -1.874104517402E+02 8.407999434784E+01 1.491159156422E+02 -1.023211155565E+02 1.631993187454E+01 1.527022290971E+02 1.494562278491E+02 9.115082903962E+01 -6.720473154782E+01 1.856433650905E+02 8.344881913141E+01 -1.627323292946E+02 1.012738791273E+02 2.328318941028E+01 -1.515392292762E+02 -1.426746944565E+02 8.781522868100E+01 -3.375893207075E+01 7.224368626128E+01 -1.025072523321E+01 -3.479295156851E+01 -2.666951490467E+01 -4.013929472164E+01 -8.080092641779E+00 -8.920836006889E+01 1.472871329146E+01 2.751950343979E+01 -7.225789328614E+01 -1.839924835457E+01 3.443498588492E+01 2.443198191593E+01 -4.136544067985E+01 1.360517152579E+01 8.377984503898E+01 1.286960097327E+01 -1.649708006053E-01 2.530087214511E+01 -1.460256878549E+03 -7.948019865751E+00 -4.043660799988E+01 1.757765536275E+03
 -7.479097701512E-02 5.040686061161E-01 2.041057717974E-01 -1.278201630665E-01 2.674235131371E-02 -6.499147667638E-02 -4.969914171976E-01 -5.554281464407E-01 3.409744022499E-01 -3.571801569512E-01 8.494626079889E-02 -2.634938515730E-01 2.865161669477E-01 4.356055818964E-01 3.024571976403E-02 -1.535512638323E-01 -5.132656654125E-01 -3.207896431343E-01 1.930044484696E-01 -2.846380020039E-01 -1.245766603900E-01 -2.920177783859E-01 1.938952294610E-01 -2.307027108287E-01 1.625493225109E-01 -9.478416805561E-02 -7.640999161044E-03 -1.263581593940E-01 2.081952871315E-01 7.263313782884E-02 -7.319054435182E-02 -2.799415164700E-01 2.190290890948E-01 -1.620540089054E-01 6.913714196596E-02 -1.923468745981E-01 -9.269436735985E-02 8.356836147827E-02 2.097810222890E+00 3.520471699371E-01 4.025832328870E-02 -1.760405228340E+00 1.195640839600E+00
 3.047691688327E-01 -1.062406253733E+00 -5.995032920630E-01 4.094944000473E-01 -1.115882351615E-01 4.640038216769E-02 -1.426687762282E-01 -1.519045841282E-01 1.618410307730E-01 -7.756680877077E-02 -8.226005640096E-01 4.907654500417E-01 -1.825719257211E-02 1.463755881209E-01 8.193038584979E-02 -6.613818439556E-01 -6.079171251752E-01 -1.269404554241E-01 -3.017177800073E-01 2.200527916250E-01 5.913163587029E-02 7.852118299016E-02 -3.623610239983E-02 -1.483733612006E-01 -2.321591823387E-01 -6.979839589269E-02 3.666091485883E-02 3.283396373672E-01 -4.333918927969E-02 -3.418500206178E-01 -9.497800978799E-03 -8.594541637501E-02 -2.062691528400E-01 2.479756523381E-01 1.138206548875E-01 5.384699876508E-02 5.980300902796E-02 -2.600200808664E-02 -8.110241325298E-01 -1.909794245604E-01 -4.787691997291E-02 1.141899323309E+00 -1.668077025779E-02 2.648362674992E+00
 -2.683025965503E-01 -5.570806363129E+00 2.587599144023E+00 5.910728892594E+00 -4.859012894377E-01 2.174082632974E+00 2.328847099720E+00 4.414976508252E+00 -7.031497288087E-01 6.037508767374E-01 4.829450221414E+00 1.966537825275E+00 -5.536159973387E+00 9.739055168591E-01 1.491151143303E+00 -2.684314475003E+00 -4.101605825089E+00 -4.995489458198E-01 -2.316403518503E-01 1.147919052886E+00 -1.605480547699E+00 4.069356054758E-01 -2.170377058498E+00 -5.646213736672E-01 -1.812140842289E+00 5.082476018117E-01 -6.717153734581E-01 -7.170988828300E-01 -1.377304933740E+00 -3.154740740449E+00 2.019653469098E+00 2.309923948814E+00 1.912333644114E-01 1.584366255662E+00 1.474249439701E-01 -3.755529056823E-01 1.697333795995E-01 1.965118335190E-01 -5.942128996004E+01 -7.355880118499E-01 -1.202096318439E+00 2.491119613106E+01 -5.719101734364E-01 4.724177069835E-02 4.720545278648E+01
 -2.632931254046E+00 3.082107792687E+00 -1.690361585147E+00 -8.202754019622E-01 6.824254187129E-01 -5.939928859028E-01 -4.404675042621E+00 -3.647518975086E-01 -1.352947220570E+00 3.484746608901E+00 -2.462911340959E+00 -1.953521379009E+00 2.803028232409E-01 -1.492180214127E+00 -7.968072981548E-01 3.419133411912E+00 9.094629001432E-01 -1.314503227413E+00 -9.405101085763E-02 -7.280405608353E-01 3.199319691074E-01 3.277280717512E+00 -1.064457020599E+00 2.689974309372E-01 -1.855608561523E+00 2.428898558402E+00 -9.010590740593E-01 -5.924426681121E-02 7.540726849802E-01 -7.948357094065E-01 -1.135945680560E+00 1.336238900978E+00 -9.772491891014E-01 3.467762252140E-01 -1.001984068203E+00 7.338375808346E-01 1.252939073218E+00 -5.435309754033E-01 1.034763767256E+01 -7.700898290269E+00 -1.825535377387E+01 -2.088219563046E+00 -1.494443380645E-01 7.036902734065E-02 -1.130011382325E+00 1.043462391432E+01
 -1.306040454302E+00 -1.213834074337E+01 4.837339383241E+00 9.920097150717E+00 -3.062033485299E+00 1.758704618469E+00 7.153368275631E+00 7.040919438301E+00 5.797038110130E+00 -4.324761648884E-01 1.314938009938E+01 4.877203101809E+00 -1.154699013690E+01 9.408459598075E-01 2.502732213400E+00 -3.780013541136E+00 -6.249353656133E+00 5.657634447978E+00 -1.159099943811E+00 1.629226272500E+00 -2.697114350356E+00 5.249621284369E-02 1.234701474288E-01 -3.815794914472E+00 -9.991225280529E-01 -6.684965554904E+00 4.502901205206E-01 -4.671693949692E-01 1.257147182673E-01 -4.819544760097E+00 3.854182083993E+00 1.566684634669E+00 -1.196984414059E+00 2.959755001812E-01 2.132972065067E+00 -1.261797279600E+01 2.567012041026E+00 2.291954542960E+00 -9.555489707485E+01 -1.997194274837E+01 -5.271412730171E+01 1.293364851965E+02 -2.204572974662E-01 -8.193417479449E-03 2.063400990838E+00 1.139808260510E+01 6.962169596489E+01
 -2.035251941396E+00 1.518536408787E+01 -5.124515731208E+00 -1.504664700749E+01 3.852579026465E+00 -1.904357499444E+00 -7.640395034169E+00 -1.008966164132E+01 -7.358460612391E+00 3.697784658042E-02 -1.499984663030E+01 -4.701952726484E+00 1.530336298237E+01 -3.610439859964E+00 -2.194388315774E+00 8.719925173832E+00 8.606099671870E+00 -6.038383501720E+00 1.100493892880E+00 -2.692140172867E+00 2.720671179439E+00 2.194271967503E+00 3.629040409041E+00 2.936201291711E+00 2.300835430598E+00 5.747793936594E+00 8.420872860975E-01 -1.161716504204E+00 5.555733437609E+00 4.275507053773E+00 -4.680681597541E+00 -1.952000181007E+00 4.108761794182E-01 -9.754123587232E-01 -2.302301093755E+01 -5.133791606781E+01 -3.032277371843E+00 -9.929937954460E-01 1.036590051989E+02 1.573027277067E+01 3.162713155587E+01 -1.345747056400E+02 1.895883564413E-01 -3.788062034657E-02 -3.583811806434E+00 -8.990678186948E+00 -1.980121212183E+01 8.029070172536E+01
 1.978477373383E-01 3.603138729288E+00 -1.290509623909E+00 -3.072608347920E+00 2.156980078280E-01 -5.799404492269E-01 -1.468001533853E+00 -1.666236690010E+00 -2.025070959844E+00 -1.736957983938E+00 -4.944579311130E+00 -1.391375957962E+00 4.346739783992E+00 5.097071478377E-01 -1.026007956564E+00 1.030573272857E+00 2.236171456476E+00 -2.118006935586E+00 3.059469977474E-01 6.580353751257E-01 3.831266516015E+00 8.132174002018E-01 3.865367524567E-02 2.649118338499E+00 7.357961726580E-01 5.721381915251E-01 1.610545700523E-01 -3.675127442815E-01 1.213568328180E+00 2.368706096233E+00 -2.220701047158E-01 2.917498983519E-01 1.182824200516E+00 -2.105042287929E-01 -1.827954848537E+00 -2.742203418764E-01 2.672891564961E+00 -2.057718464975E+00 3.334788718074E+01 -3.665233482584E+01 1.317132703372E+01 -7.217598944314E+01 -5.464024739073E-02 6.697436960147E-02 -2.354779933980E-01 -5.200719080721E-01 -5.349305110515E+00 1.517809778279E+00 3.733818685091E+01
 6.561407457979E+00 -7.764684628951E+00 3.507986313598E+00 3.949093398317E+00 -2.766006266420E+00 1.234399478995E+00 5.446615545441E+00 3.547605975815E+00 3.422229331608E+00 -1.839209818137E+00 7.798765634292E+00 3.430925693045E+00 -4.413680334367E+00 4.525896952481E-01 1.831423428660E+00 -8.575121007545E+00 -1.044982173199E+00 2.214758152544E+00 1.548892809859E+00 -1.703548289369E+01 -3.032401900574E+01 -5.390457221815E+00 -3.609108087575E+00 2.342149572068E+00 2.881646003236E-01 -6.354348651516E-01 -9.426509882503E-01 6.599387270378E-01 -3.050122806653E+00 9.203470397247E-01 1.247101383536E+00 5.005972248098E-01 -7.040730119922E-01 -5.423979988496E-01 3.402824428689E+00 2.621798253074E-01 -4.387653403528E-01 1.549301911961E-01 -2.184033551769E+01 1.228677931032E+01 -4.613102623503E-01 4.041597064996E+01 1.725437242577E-01 -1.298936715947E-01 1.441590944387E+00 -1.705019928530E+00 2.269635893490E+00 -3.938724083835E+00 -1.498215430021E+01 3.432411184220E+01
 2.763430404719E+00 1.637648599388E+01 -5.878628346221E+00 -1.497830453348E+01 1.651794195920E+00 -2.445273708208E+00 -5.024567716680E+00 -1.011984603905E+01 -7.634383338494E+00 -6.115840771089E+00 -1.700065813062E+01 -6.029855830577E+00 1.808276662825E+01 -1.271829401539E-01 -3.241624240387E+00 4.476578402450E+00 9.322799914624E+00 -7.462815998043E+00 4.222328607868E+00 -3.289466994408E+01 -4.335318956145E+01 4.685241906396E+00 6.625650070943E+00 -2.983568871246E+00 8.694740829286E-01 7.120291116824E+00 2.472450005400E-01 7.238641710550E-02 2.711629576497E+00 7.440396445288E+00 -3.850678168308E+00 -2.570351592256E+00 4.626535243922E+00 -1.420470666538E+00 -5.586626666609E+00 -6.325678907491E-01 4.899207756325E+00 -5.477433129068E+00 1.422858535210E+02 -3.959752341308E+01 1.591796184170E+01 -1.794492346055E+02 1.514613844856E-01 9.387042336245E-03 -3.372070925775E+00 3.254757545381E+00 -6.250188776131E+00 6.007899707955E+00 3.351695297087E+01 6.257313660124E+00 9.291083842331E+01
 3.639679948382E+00 -2.382658876982E+00 1.487241135263E+00 3.942455663400E-01 -1.729149124057E+00 6.196157845823E-01 3.704800149565E+00 1.372460559877E+00 1.462819554324E+00 -2.047224194858E+00 3.094115676118E+00 1.612589862802E+00 -1.443837933759E+00 -2.723879500085E-01 8.685461340253E-01 -4.370765821922E+00 -1.918991465608E-01 1.307725841828E+00 -1.140911899420E+00 1.680851183447E+00 -6.478343467187E-02 -2.046098774277E+00 1.654426021084E+00 -3.085425578329E-01 4.435162338103E-01 -2.559722975328E+00 1.311357049527E+00 9.658971629330E-01 -1.203832285108E+00 1.051293273597E-01 7.726283192722E-01 -1.455897831998E-01 -3.362915526951E-01 8.760070757942E-02 1.440066026482E+00 4.055845470883E-01 4.757355535035E-01 2.916386043514E-01 -1.611645492637E+01 -4.042832890753E+00 -1.410857681259E+01 1.187377233988E+01 5.295831460496E-02 3.630635441758E-02 1.035139137437E+00 -2.476421387420E-01 2.874750692232E+00 -2.335801539959E+00 -2.436166365061E+00 3.610001708936E+00 -4.360800640500E+00 7.998963507616E+00
 -2.092948263398E+00 1.429748664723E+01 -5.453915764817E+00 -1.094646834751E+01 3.294766878581E+00 -1.705452298281E+00 -5.048830426465E+00 -8.573569990723E+00 -6.526782617063E+00 -1.293709396916E+00 -1.284550509651E+01 -5.241661850885E+00 1.092496389618E+01 -2.806093701567E+00 -2.802874165229E+00 7.740046389583E+00 6.125578556342E+00 -5.361877476840E+00 -2.324539875224E-01 2.916139900706E-01 3.883185398795E+00 4.231693735939E+00 1.663644238284E+00 1.740359602829E+00 -7.631287456899E-01 1.333712360199E+00 1.620665760048E+01 -3.025185768989E-01 1.966045415325E+00 2.670672950790E+00 -7.803979247414E-01 -5.265495363442E-01 2.806329450116E+00 -9.094887424479E-01 -6.450114024522E+00 -6.677139125001E-01 1.711447615946E+00 -1.375333482858E+00 8.672164565373E+01 -1.348392233803E+01 -3.886815819771E+01 -1.143090348626E+02 1.416487693825E-01 9.750464340856E-02 -1.626717263599E+00 2.795781621955E+00 -3.237006082218E+00 5.285910683790E+00 6.439881869605E+00 -1.576489471707E+01 6.475952717697E+00 7.814928687933E+00 5.898734480690E+01
 -8.333788034548E-01 1.510230406246E+01 -4.956181424864E+00 -1.447534633148E+01 4.004549504477E+00 -1.677502756304E+00 -9.410394041769E+00 -9.475759033228E+00 -6.516983902250E+00 1.514996554248E+00 -1.457787195244E+01 -4.837600198887E+00 1.622509934260E+01 -5.009019362155E+00 -2.228269910131E+00 7.123942444101E+00 9.912449289832E+00 -7.254635359498E+00 1.789756986717E+00 -5.937911276164E+00 2.759320532277E+00 1.811202591239E+00 2.312263244463E+00 7.082489930337E-01 2.382548806756E+00 2.635860291280E+01 -6.178797809393E+01 1.030493954198E-01 3.456917218223E+00 3.422077136926E+00 -4.838232394881E+00 -3.254181528743E+00 2.704008461545E+00 -1.526232011497E+00 -6.906077610887E+00 -2.400639907313E-01 3.143821894726E+00 -2.743458917994E+00 1.075842538262E+02 -9.164372971011E+00 -2.066716340216E+01 -1.356448317020E+02 2.170314898019E-01 3.072933973122E-02 -2.997497676342E+00 2.395561269086E+00 -5.179188881046E+00 8.929210310359E+00 9.272967021351E-01 -1.270637310510E+00 7.125086548119E+00 4.548169313800E+00 9.644235919293E+00 8.772341702479E+01