#BIOSYM hessian 1
@Type: Hessian Update
@Units
 distance: 	A
 energy: 	Kcal/Mol
#header
@natom 6

#label
L1      L2      L3      L4      L5      L6

#element
Li Li Li Li Li Li

#matrix
18
 2.189554128465E+03
 -6.022794955778E+01 2.165633135326E+03
 1.230118000708E+02 1.240833189721E+02 1.862868388511E+03
 -6.123126403871E+01 -4.178594413395E+01 2.881596098634E+02 1.879901397191E+03
 -1.461082817583E+02 -1.949277793420E+02 2.306999220830E+02 3.120197366966E+01 1.694016394586E+03
 -1.005536509938E+02 -1.220404692411E+02 2.171732177197E+02 -9.016984707016E+01 -2.986356924128E+02 2.045761996651E+03
 -2.283961247235E+01 -4.518911117599E+01 -3.705897016574E+01 1.740787126746E+02 -1.992843765612E+02 -6.079971447169E+01 2.086416377715E+03
 -3.022414105237E+00 2.914779962341E+01 1.564548809029E+02 -2.825007101523E+02 1.970210552905E+02 2.595015887293E+01 1.874431618981E+02 1.961974036767E+03
 3.650995590166E+01 6.386960841308E+01 7.928404944749E+00 -1.359462853005E+02 2.372360617904E+02 9.257036831353E+01 1.381391860923E+02 -1.771044202021E+02 2.099628019718E+03
 1.045692213346E+02 1.391673632540E+02 -1.670789218515E+02 -2.309323461060E+01 3.918277239465E+02 2.137930247585E+02 1.442319056344E+02 -1.404553594169E+02 -1.694388662843E+02 1.959993271631E+03
 1.089521374477E+02 1.008246494586E+02 -3.811632315199E+02 3.759119467679E+02 1.232496215341E+02 1.820461759064E+02 -1.238395188133E+02 2.470721387027E+02 7.687422823894E+01 -8.834750016773E+01 1.803123934995E+03
 8.672341248124E+01 8.689828023388E+01 -2.712563653734E+02 2.393086388171E+02 1.396639112089E+02 1.504099384731E+02 -5.804960226207E+01 1.373749245539E+02 2.298159373809E+01 -1.001633990176E+02 -2.958692044800E+02 2.034703598323E+03
 5.353522803933E+01 5.970323945094E+01 -1.396424339408E+02 7.360852674233E+01 1.397799669006E+02 1.011073016612E+02 2.032551866208E+01 1.762685026197E+01 -2.897805460286E+01 -1.008383585289E+02 -1.225814856154E+02 -9.461400611886E+01 2.181800739060E+03
 5.756310741637E+01 4.986996692283E+01 -2.141247294591E+02 2.028060645688E+02 5.754246004733E+01 9.372534651356E+01 -6.283307963297E+01 1.417679877819E+02 4.776234619614E+01 -4.232073038914E+01 -2.373125941363E+02 -1.592527245392E+02 -6.928294471225E+01 2.106182726946E+03
 -1.312421443601E+02 -1.582275326640E+02 2.891177660015E+02 -1.080731865552E+02 -4.003778104101E+02 -2.581141962978E+02 -9.172865703811E+01 3.829795035058E+01 1.232735038642E+02 2.873250091202E+02 2.341180435555E+02 1.955963172155E+02 1.353440792170E+02 1.240366463631E+02 1.899408545132E+03
 -2.274158060701E+01 -5.166759783720E+01 -6.739108397636E+01 1.975819827627E+02 -2.174170061972E+02 -6.337711388388E+01 -1.613667814936E+02 2.209084715150E+02 1.597140641942E+02 1.559833152608E+02 -1.500955796201E+02 -7.320504390041E+01 1.241446674657E+01 -8.593241725108E+01 -9.162510038405E+01 2.058974718051E+03
 4.284340055735E+01 9.029834873219E+01 8.404983902117E+01 -2.856333307210E+02 3.639443686050E+02 1.189544803609E+02 2.437029242861E+02 -3.361368974456E+02 -2.486378244369E+02 -2.598714972269E+02 2.038883701679E+02 9.118481302305E+01 -2.524562628589E+01 1.227955731593E+02 1.621527028052E+02 2.842041293910E+02 1.796056357501E+03
 -1.444937309983E+01 5.416794286060E+00 1.350147089177E+02 -1.932789297556E+02 9.141360774069E+01 -6.955204138835E+00 1.094977578461E+02 -1.809734944789E+02 -1.055357698585E+02 -6.443684672544E+01 1.839939882999E+02 1.084110383453E+02 2.678311378417E+01 1.078531149259E+02 -8.435815194601E+00 1.358842779509E+02 -2.077040107740E+02 2.118347162649E+03

