#BIOSYM hessian 1
@Type: Hessian Update
@Units
 distance: 	A
 energy: 	Kcal/Mol
#header
@natom 19

#label
L1      L2      L3      L4      L5      L6      L7      L8      L9      L10     L11     L12     L13     L14     L15     L16     L17     L18     L19

#element
Li Li Li Li Li Li Li Li Li Li Li Li Li Li Li Li Li Li Li

#matrix
57
 6.527503731260E+04
 9.889440772925E+01 6.451487863655E+04
 -4.070560015618E+01 1.413572255794E+02 6.310685729362E+04
 -6.272334717429E+01 1.261531156115E+02 9.407911027803E+01 3.016987571738E+04
 -1.240746702509E+02 -6.483707195557E+01 1.172272152312E+02 9.026748772661E+01 2.976939067720E+04
 1.577237046793E+02 9.113186238091E+01 -1.421691043335E+04 -1.487129060723E+02 -1.121938425673E+02 4.442535216495E+04
 -2.299946815540E+03 5.241351319064E+03 -2.818846485992E+03 -2.096149122086E+03 3.863125830365E+03 8.884365305416E+02 3.421635056651E+04
 4.307200918012E+03 -9.982657043575E+03 5.653375656088E+03 3.947402329042E+03 -7.800882832984E+03 -2.533835954991E+03 -6.130684553966E+03 4.199409328509E+04
 -1.559949336451E+03 4.444474463740E+03 -2.441095703104E+03 2.656490952099E+03 -5.139888835476E+03 -4.361027779493E+03 3.174520532960E+03 -7.334989444128E+03 3.106030498792E+04
 -6.338830325869E+03 -5.623150177558E+03 4.500213148920E+03 -5.004036974375E+03 -4.885247799481E+03 -2.367060988038E+03 -1.176145768661E+04 7.007126693984E+02 1.149097121029E+03 3.727792209090E+04
 -6.693019028145E+03 -5.970283119295E+03 4.493039114541E+03 -4.871372397724E+03 -4.922685713497E+03 -1.739000346934E+03 3.529977648775E+03 -2.780879613166E+03 1.097510112202E+03 7.162156592993E+03 3.877629266878E+04
 3.981606633340E+03 3.069882956561E+03 -2.546219358215E+03 -4.040032657461E+03 -4.118679674278E+03 -4.418413125068E+03 -4.468215566874E+02 1.092869864690E+03 -5.528296943615E+02 -5.996138762961E+03 -5.228073428455E+03 3.148093344983E+04
 -9.621228046381E+03 5.487185361072E+03 5.834169216104E+03 -7.816669239248E+03 4.003397342184E+03 -2.236465024216E+03 -5.977266144718E+02 -6.895377435490E+02 1.201263766974E+03 -2.203073788398E+03 -3.074375856394E+02 1.545816492667E+03 4.273382532918E+04
 4.646294161459E+03 -2.669918053221E+03 -2.929131593140E+03 4.152550135873E+03 -2.247755348138E+03 1.643633902412E+03 1.080387765846E+03 -1.029194059055E+03 -4.275682155713E+02 2.560879555719E+03 -1.200193893780E+04 -8.748170298344E+02 -5.444820945575E+03 3.299300998459E+04
 4.342893430582E+03 -2.796957552565E+03 -2.667871206678E+03 -5.032293302306E+03 2.574477618099E+03 -4.392781917393E+03 -7.138752742857E+02 1.138621750784E+03 -4.859786859938E+02 8.881127550358E+02 7.575879676083E+02 -6.302235272512E+02 -6.902222333040E+03 4.061305340335E+03 3.147902441771E+04
 -4.691901656345E+02 -2.054691829442E+03 -1.160540875605E+03 -4.701142091568E+02 -1.969718845213E+03 7.997159077186E+02 -5.111744586037E+02 7.877341533126E+02 -4.670123592005E+01 -7.941137919362E+02 -1.056234012994E+03 5.423102021378E+01 -1.051733659230E+04 -5.245393615451E+03 -3.620660227241E+02 3.097960726878E+04
 -2.542015698687E+03 -1.173753065256E+04 -6.440970744150E+03 -1.706581458809E+03 -9.685183350524E+03 2.547843820995E+03 -1.071687538461E+03 -1.022721365415E+03 -1.222896375046E+03 3.709901718977E+02 -7.844977076740E+02 -1.346023365117E+03 -2.145201023186E+03 -3.816544078709E+03 -1.730994178608E+03 1.910983032189E+03 4.481653201715E+04
 -1.313739121741E+03 -4.898086264353E+03 -2.688801506711E+03 1.016280720094E+03 5.521757186000E+03 -4.178123488285E+03 -7.595804504181E+02 1.017040344431E+03 -4.297725458439E+02 7.547960923375E+02 9.201566317957E+02 -4.713812041263E+02 1.022929424272E+03 -5.999453757398E+02 -6.077243813798E+02 2.057621735102E+03 7.986985151230E+03 3.151878045544E+04
 -1.177228258971E+04 -1.112758068772E+03 -6.385434264150E+03 -9.847145668681E+03 -1.451701757246E+03 2.712954086898E+03 -4.659774453619E+03 -2.752532511675E+03 -1.261939682317E+03 -1.254892205549E+03 7.366191583939E+02 -1.260911193176E+03 -9.492676966488E+02 -5.353351408327E+02 -1.269539989564E+03 -6.536635522592E+03 3.522977147828E+03 -1.606550707314E+03 4.428683189586E+04
 -1.714985432001E+03 -1.824708008835E+02 -8.661493416425E+02 -1.259772176832E+03 -2.791709358588E+02 9.075085564306E+01 -5.644868251454E+03 -9.760409887320E+03 -4.414433366371E+02 -1.079180983399E+03 -5.843684929185E+02 -3.856503265223E+02 1.027802123658E+03 -5.841673645478E+02 -3.974555097062E+02 6.403717324608E+03 -7.897833433696E+03 -8.174469694567E+01 2.397665965633E+03 3.111500569457E+04
 -5.198433307755E+03 -2.379403244136E+02 -2.755377442736E+03 5.543092558519E+03 7.945463253330E+02 -4.301785410931E+03 -1.065988787868E+03 1.412995685236E+03 -6.659817528594E+02 8.762261498358E+02 1.125087885900E+03 -5.953835072304E+02 1.368883933587E+03 -5.294495489454E+02 -6.155670662473E+02 -3.789975739360E+02 -1.312479755988E+03 -6.520914933777E+02 8.341041154916E+03 6.917949144864E+02 3.181698896608E+04
 -1.151137836216E+03 -3.569428539215E+03 -1.218308392148E+03 -1.990867122331E+02 -5.208048898750E+02 8.806380724055E+02 -4.653535181054E+03 -2.654813735314E+03 -5.034868694128E+03 -2.839314690659E+03 1.580578336545E+02 5.024211260215E+03 -1.849905463761E+03 2.032567080779E+03 1.100089030110E+03 1.315904536607E+02 1.450373515027E+03 4.538475600349E+02 -2.745116070059E+02 -1.115584459609E+03 -3.922376165083E+02 3.779956358441E+04
 -3.268583193483E+03 -1.038908365488E+04 -3.363900404000E+03 -5.166893031135E+02 -1.398933550897E+03 2.470933388646E+03 2.166677689567E+03 -4.391238581918E+03 1.586473506487E+03 -1.473835995010E+03 -4.881716659252E+03 -1.413416183886E+03 -3.609434248510E+03 -9.178407178019E+02 5.910698551755E+02 1.309973729299E+01 3.380407742529E+03 1.307133836268E+03 3.160876177094E+03 -5.553608706293E+02 1.195367410279E+03 4.275424530435E+03 4.907420896179E+04
 -1.213739549865E+03 -4.317762512822E+03 -1.891766049635E+03 -7.632085620678E+02 -2.080620097976E+03 -2.190479765250E+03 -5.796045297564E+03 -9.646686787359E+02 -6.434302944261E+03 4.234031598774E+03 -3.585941653701E+03 -8.665549562381E+03 3.643900875819E+02 -1.488484634656E+03 -7.256148695088E+02 -2.653101146432E+02 -4.570929641258E+02 -1.256502732898E+02 -1.031193350664E+03 -9.959680455584E+02 -5.415618635554E+02 -1.038670600390E+03 5.088432689636E+02 4.166617916212E+04
 -1.189124257713E+04 -1.675861869281E+02 -3.553878316498E+03 -1.699450244987E+03 4.906009392407E+01 2.623738996700E+03 1.630964247433E+02 -3.203125438578E+03 7.822648113568E+02 -4.678348833817E+03 -1.953647882376E+03 -1.237827005060E+02 -5.267161605371E+03 8.472128391105E+02 1.847560939917E+02 -1.299611526563E+03 3.674017074195E+03 8.022303639902E+02 3.292547410438E+03 9.891562532705E+02 1.637288761863E+03 -6.644164043321E+03 -7.349148743778E+02 1.448508996085E+02 5.065953078065E+04
 1.375374722466E+02 9.100590523767E+00 7.894387422786E+01 8.558973440611E+01 1.034267147839E+01 -1.203615699436E+01 1.245063317048E+03 -9.055499596275E+02 6.575464071166E+02 2.726326121119E+03 -4.537161810372E+03 5.209802641949E+03 -9.300175991590E+02 -2.633925758186E+03 -5.212808538452E+03 -1.835751571079E+03 -1.213978283501E+03 -8.475163068794E+02 -3.034496258769E+02 -5.012594348969E+01 -1.370624110633E+01 6.137852682458E+03 -8.603301091546E+03 -2.675544632099E+02 -5.266147325736E+01 3.630353431873E+04
 -4.319926577703E+03 -2.020313385933E+02 -1.818696501114E+03 -2.236101752888E+03 8.078698222403E+01 -2.324512706909E+03 -1.217094692479E+03 7.472315704062E+02 -5.894716038726E+02 -2.777829046252E+03 5.253389863450E+03 -6.387357428689E+03 -1.959210163330E+03 -5.195353368564E+03 -8.700543405948E+03 -1.263144228986E+03 -9.482345918738E+02 -7.540117727416E+02 -7.442130772239E+02 4.916027748063E+01 -2.178932548114E+02 1.561915735354E+02 -4.649192810314E+02 -8.975139915136E+01 -2.298965396429E+01 1.279340164170E+03 4.184820233746E+04
 -1.172805933264E+03 3.255544102798E+03 -1.008706243569E+03 -1.368912687302E+02 3.969854718889E+02 7.522523042448E+02 5.069489012236E+02 -6.586097675955E+02 3.372806018309E+02 -1.334379209061E+03 -1.623618870021E+03 8.309187748540E+02 -4.295763886112E+03 -2.596111127461E+03 4.781342552335E+03 -3.176830478500E+03 1.799500632863E+03 -5.043416600146E+03 -7.307596194453E+02 2.011468726467E+03 -5.222221321818E+02 -6.500946206622E+02 -2.206679485735E+03 -7.964596557695E+01 -6.672857026732E+03 -6.179761947314E+03 -1.315422858869E+02 3.754307325884E+04
 3.860050196738E+03 -1.078894864233E+04 3.137849743204E+03 5.277874204157E+02 -1.625706604818E+03 -2.528335347499E+03 -2.146581484837E+03 2.886131327018E+03 -1.323600777271E+03 2.456582794020E+03 6.247167106896E+02 -5.808612962453E+02 2.115816133936E+03 -4.876310385427E+03 1.648065476222E+03 -6.528578708740E+01 -4.887479603417E+03 -1.640427780480E+03 -3.370910042275E+03 -1.935149134798E+03 -1.361108526391E+03 2.232288533022E+03 2.861293953457E+03 1.375389916706E+02 7.654390030491E+02 -8.467778630968E+03 -4.107816903967E+02 -4.180752539801E+03 4.937905132347E+04
 -1.426075980057E+03 3.884571439205E+03 -1.742807598893E+03 -6.218766572505E+02 2.196311277351E+03 -2.407738000620E+03 -2.076964051626E+02 7.393705763233E+02 -2.475768078967E+02 3.557330216119E+02 1.533268336087E+03 -6.465319687171E+02 4.204516897681E+03 4.231336802532E+03 -6.423025035036E+03 -5.698246421629E+03 2.503826553963E+02 -8.473585075251E+03 -1.447747085591E+03 9.527318903692E+02 -8.762779421613E+02 6.134142924345E+01 1.259066876290E+02 2.902255053235E+01 -1.601011469299E+02 -2.782270848501E+02 -1.043056338304E+02 1.099443629707E+03 5.118095906244E+02 4.146408147900E+04
 -7.810775796973E+03 -5.954507253501E+03 2.697876825665E+03 -1.139482223629E+03 -8.536825701391E+02 -2.171116887463E+03 -2.265776943127E+03 3.035126885809E+03 -1.194559953176E+03 1.682672392339E+03 2.634254828830E+03 -1.256549873597E+03 6.400122994006E+02 -1.854847601493E+03 -4.564057883526E+02 -4.841441620590E+03 -2.310029722864E+03 3.002828704270E+03 -4.238753189521E+03 -2.879460957235E+02 -3.375172192052E+03 5.822024823248E+02 3.935235176928E+03 1.223927458296E+02 2.732119511074E+03 -9.807349225048E+02 1.343090480028E+01 -9.673309121944E+03 -1.731700479665E+03 -3.471784644904E+02 4.601955495215E+04
 -5.100640869598E+03 -3.916886235037E+03 1.893514067188E+03 -6.495682551415E+02 -4.817705960358E+02 -1.220782572434E+03 -2.566274357001E+03 -5.021345604578E+02 3.370778110959E+02 8.294166492542E+02 1.201034954983E+03 -7.291786980658E+02 2.166583574448E+03 -1.332402904362E+03 -8.800433175719E+02 2.223118827962E+03 -4.016382362451E+03 -4.037048133300E+03 -1.751154144129E+03 -3.533388124526E+03 4.350555717614E+03 -6.969371888703E+02 1.552953361590E+03 8.160994311034E+01 2.870755103145E+03 -2.954794484105E+02 -1.319216267396E+01 5.204035242679E+03 -5.417724029688E+03 -2.035624554620E+02 6.350407611224E+03 4.127021119942E+04
 3.389010132275E+03 2.580462763407E+03 -1.787911272177E+03 1.894599448082E+03 1.178856888665E+03 -2.316427553719E+03 4.874269295944E+02 1.498563564416E+03 -7.765347081304E+02 5.912677306472E+02 3.588889647194E+02 -2.394984261695E+02 1.470127171584E+03 6.270559631185E+01 -6.208055240633E+02 5.282022063982E+03 -2.795900312428E+03 -6.568536727083E+03 -1.278286865115E+03 5.445394678986E+03 -8.609577645539E+03 -4.497967076270E+01 -2.278367789658E+00 2.615170291088E+01 5.391373530402E+01 -1.866559104603E+01 5.614313243481E+01 -8.400965329234E+01 1.505002936335E+02 -5.394504234151E+01 6.976667389065E+02 -9.115247253583E+02 4.201500284524E+04
 -7.767944139594E+03 5.211976305654E+03 2.762952438358E+03 -1.042866649561E+03 7.264686420465E+02 -1.985714114573E+03 -4.351008734313E+03 1.821347637701E+03 2.980083754575E+03 -7.046998873295E+02 2.980827894723E+03 -1.612087143737E+02 2.469394208126E+03 -7.732143022065E+02 -1.227522444879E+03 -1.171891802979E+03 -2.898298397621E+03 -1.041103555348E+03 -4.218888988840E+03 -1.854356349872E+03 -3.198798121982E+03 -9.809382428217E+03 1.754407588120E+03 3.398622363550E+02 2.649327123271E+03 1.074265912757E+03 6.627809912421E+00 5.565643026807E+02 -3.875023482564E+03 -9.289061031376E+01 -4.696969735106E+03 -3.330847144686E+03 -1.695409707495E+02 4.587165429589E+04
 5.535429706592E+03 -3.779969529011E+03 -2.043407120687E+03 7.440687848245E+02 -5.629756550006E+02 1.470439645224E+03 1.421070417547E+01 -3.802143399020E+03 4.536558108192E+03 -2.318994672497E+03 -1.957603111751E+03 1.257146081629E+03 -2.235501445109E+03 7.555319897664E+02 8.159312369168E+02 1.610043448278E+03 2.258233762283E+02 -1.895729143910E+02 2.266236572017E+03 -4.565487872595E+03 -4.240175101894E+03 -5.062610227663E+03 -5.360552826678E+03 -2.223810740379E+02 -3.023556767776E+03 -3.403071386717E+02 1.671677714143E+01 6.283387911701E+02 1.718182561224E+03 5.110737843688E+01 3.280606036591E+03 -1.108394742387E+04 5.298105411753E+01 -6.408519500356E+03 4.152274254321E+04
 3.698132856370E+03 -2.358504083439E+03 -1.854843174037E+03 1.780834018843E+03 -1.285268738178E+03 -2.332299397924E+03 4.657429265691E+03 3.383264357500E+03 -8.371740008350E+03 1.672534043896E+03 4.445484153034E+01 -7.852911711281E+02 5.315985426975E+02 -4.334881702285E+02 -2.285552008305E+02 5.710843196021E+02 -1.351646140638E+03 -6.669894489185E+02 -7.622165293002E+02 -5.824419422234E+03 -6.917555788631E+03 7.588397247132E+01 1.570856167743E+02 -5.164663153250E+01 -3.109368425715E+01 1.039908529236E+01 6.721146815307E+01 3.573336003225E+01 -4.389008536858E+01 3.515704650013E+01 1.581984927962E+02 6.234625393388E+01 -8.371442104625E+01 -7.413546007082E+02 -9.237156484561E+02 4.199136959588E+04
 1.650588350339E+02 -2.340797825845E+02 1.789644563222E+01 1.280212266239E+01 -1.427648480219E+01 8.844209020721E+01 -3.805002284766E+02 6.749960494717E+02 -9.057761446061E+02 -1.098387109506E+03 -1.248954064624E+03 1.650414422089E+03 -1.683601961598E+03 7.739026336869E+02 2.074775241147E+03 -1.911909314495E+01 -4.310369287984E+02 -4.077465050800E+02 -1.909501626456E+03 -3.789907361853E+02 -2.172098850917E+03 -1.269650116008E+03 -3.940220237137E+03 1.471563656923E+03 -1.183964494266E+04 -1.810270914432E+02 4.316632733692E+03 -1.044305553089E+03 3.131359599430E+03 1.157409106502E+03 -8.002364525222E+03 -5.471350995955E+03 -3.750681631480E+03 -7.625661410428E+03 5.215903141067E+03 -3.333506758905E+03 6.529999768762E+04
 2.364880419167E+02 1.149507719175E+02 1.160808104050E+02 1.729289717978E+01 -3.247013677208E+00 -1.730171948472E+01 9.999536841315E+02 -1.732881795782E+03 2.016448253443E+03 -9.316073329252E+02 -1.008301577826E+03 1.572471868054E+03 1.002822943911E+03 -3.912614745471E+02 -1.054119785596E+03 -2.606827231886E+02 -2.029324460191E+03 -2.216819577935E+03 -1.554152163557E+02 -1.032281171213E+01 -2.520505349191E+02 -3.338759280999E+03 -1.060718055074E+04 3.843669597503E+03 3.671754515554E+02 2.268117726332E+01 -2.010738098420E+02 3.502624038779E+03 -1.058682537925E+04 -4.302774661342E+03 -5.248731561340E+03 -3.649344349647E+03 -2.295372713219E+03 5.898589524107E+03 -4.055506423829E+03 2.640208771912E+03 6.292874542818E+01 6.451807871700E+04
 -3.491632168762E+00 1.377912670803E+02 -1.368002760159E+04 -6.185812258320E-01 2.161647832333E+01 -1.398336826076E+03 -5.930850533295E+02 8.910061027879E+02 -2.246003789289E+03 6.164731265659E+02 9.045900418676E+02 -2.313225509089E+03 9.839246324737E+02 -3.754056510176E+02 -2.347141261520E+03 -1.238973687725E+02 -1.092012554228E+03 -2.371940941953E+03 -1.127281617890E+03 -2.060870919068E+02 -2.347342680100E+03 1.050365282914E+03 3.107393191824E+03 -1.734668389074E+03 3.564534782763E+03 2.062182523155E+01 -1.848106056344E+03 1.181496295130E+03 -3.384698439437E+03 -1.884938205976E+03 -2.802804695631E+03 -2.034102658861E+03 -1.853896707806E+03 -2.655544181169E+03 1.934591452692E+03 -1.772684498616E+03 6.922413231627E+00 1.029970260108E+02 6.309715616516E+04
 1.444243993222E+01 -1.662218160266E+01 4.292637723471E+00 -6.814471488808E+01 1.684060109370E+02 6.060538124745E+01 -7.980470425876E+01 9.035305890405E+01 -3.548793283213E+02 -1.793600099466E+02 3.037459917509E+01 6.480381975069E+01 -1.550801738820E+02 1.880022526996E+02 4.465935223970E+02 -9.326061580380E+01 1.133388286740E+02 1.622075343344E+02 -1.054291572730E+02 1.010521179660E+02 -2.310470297929E+02 -1.530160197896E+02 -5.570330868172E+02 6.428550979535E+02 -1.691732109189E+03 -1.010341593431E+02 2.230899263512E+03 -1.832055923040E+02 5.073418617312E+02 7.441850157245E+02 -1.070911091219E+03 -7.350435767894E+02 -1.807256028577E+03 -1.104823015814E+03 6.735973788948E+02 -1.863280903962E+03 -5.721806676425E+01 -1.259101717577E+02 -1.099805818117E+02 3.015451052477E+04
 1.830766673848E+01 -2.715461096211E+00 -1.024625187448E+00 -1.712458983835E+02 -9.145003727649E+01 -2.238335232015E+00 -7.042281406935E+01 -1.930572940821E+02 2.411828317508E+02 -1.665802649678E+02 -7.408396036981E+01 4.355488446587E+02 -7.984422972765E+01 -1.123290973546E+02 6.513786817535E+01 -1.226635326001E+02 -1.637235690498E+02 -3.711731451031E+02 -9.606212845579E+01 -7.726015685580E+01 -2.596332577447E+02 -3.979025146280E+02 -1.584614256211E+03 2.172613482319E+03 3.213149612947E+00 1.649292468799E+01 1.002557935202E+02 5.221561427407E+02 -1.440883739366E+03 -2.099193710014E+03 -7.428167493907E+02 -5.655910336745E+02 -1.238680207058E+03 8.372322995791E+02 -4.736232230546E+02 1.213638298772E+03 1.265774137321E+02 -6.959666790047E+01 1.536993113532E+02 -1.978061289988E+01 2.979913042315E+04
 -1.349028084778E+02 9.288316015509E+01 -1.395015198568E+03 -6.352792505058E+01 4.010951338951E+01 1.781543228761E+03 1.489589178367E+03 -2.111416735601E+03 4.628052692179E+02 -1.381545628143E+03 -1.994919449391E+03 4.931016401191E+02 -2.434974101659E+03 7.675452035507E+02 5.659158098328E+02 8.457571371829E+01 2.528079361624E+03 4.537956206642E+02 2.305877466200E+03 6.675780561926E+02 6.583532358574E+02 -7.356597080301E+02 -2.503171569929E+03 -2.431335892565E+03 -2.621715995439E+03 -9.313770314400E+01 -2.354328098181E+03 -8.913466616349E+02 2.499638732404E+03 -2.212407866063E+03 2.064589755843E+03 1.376765439571E+03 -2.313758847981E+03 2.093549022269E+03 -1.303193238482E+03 -2.286215314254E+03 -1.178541531518E+02 2.165889050417E+02 -1.421160345253E+04 1.491389607272E+02 -1.531447378894E+02 4.442586835907E+04
 -1.712674809602E+03 -9.019415356937E+02 -9.917262451517E+02 -1.496944599911E+02 1.052449029273E+02 2.425677123811E+03 6.361618372159E+02 -2.441469108176E+03 2.862399814177E+02 -1.751019764028E+03 -2.600858782819E+03 7.467304700343E+02 -2.611317364880E+03 1.307591040492E+03 1.504371139920E+03 1.606980539704E+02 3.186319715089E+03 1.174033716529E+03 2.675053897292E+03 8.552747630761E+02 1.277584601365E+03 -4.281646273400E+03 -2.082110310849E+03 -4.217435885577E+03 -5.246142367550E+03 8.823407440348E+02 1.898942653113E+03 -1.863370706174E+03 3.617471429968E+03 -3.856550358372E+02 2.568147415682E+03 2.154132826677E+03 -5.034941771092E+02 5.586165742620E+02 -2.239959898157E+03 -1.461989298103E+03 -9.653264895124E+03 -5.336696821862E+03 -5.836951247639E+03 -7.870550392738E+03 -3.950647532392E+03 2.251200448988E+03 4.278620769819E+04
 -7.911202361052E+02 -3.515095147251E+02 -3.937352558664E+02 -1.893774967639E+02 -9.639065169454E+01 7.502645907336E+02 1.137353624332E+03 -1.110515799114E+03 4.901854985733E+02 -1.466813814274E+01 -1.009399260778E+03 1.273897470113E+03 -1.301220650231E+03 -2.043109601759E+02 -2.626201653788E+02 -7.324486914173E+02 9.132101236902E+02 2.070179926783E+02 7.816849280974E+02 2.826224510464E+02 3.248700259188E+02 2.558793248212E+03 -4.846549665688E+03 4.259670938846E+03 -8.381224676796E+02 -2.635030330599E+03 -5.191927589528E+03 -2.023650633452E+03 -9.268282049889E+02 -1.491202333398E+03 7.902696610183E+02 7.398887413369E+02 -4.110698063694E+02 1.852273090815E+03 -1.393569150224E+03 9.694576966373E+01 -4.626750951201E+03 -2.579797785903E+03 -2.881636844031E+03 -4.136250181877E+03 -2.202304731522E+03 1.620364066534E+03 5.407956815844E+03 3.289775721720E+04
 -2.092225187493E+03 -9.733930681839E+02 -2.353711906963E+03 -4.367213570097E+02 8.891680501711E+01 5.529244788441E+02 6.855243294115E+01 -6.905580394182E+02 -4.138738758722E+02 -1.470899610004E+03 -3.002356782913E+02 -2.673563126456E+03 -1.505975164857E+03 -2.497927495739E+02 -9.180294671260E+02 -1.410226024726E+02 1.265883645500E+03 8.971113186175E+01 9.270373873212E+02 3.922751708134E+02 2.618423653725E+02 -4.755777173179E+03 1.707257261835E+03 -6.481816016054E+03 -2.119832559166E+02 -5.262314651402E+03 -8.746511255667E+03 -1.107361979277E+03 6.055551401043E+02 -7.178656419232E+02 1.263214074171E+03 7.489152971161E+02 -1.981040323625E+02 3.949284699114E+02 -9.263469265720E+02 -6.218359662738E+02 -4.332617053659E+03 -2.684228491108E+03 -2.642787105343E+03 5.050737549273E+03 2.563574193158E+03 -4.365820898785E+03 6.909006429857E+03 4.027834271052E+03 3.153333517042E+04
 -2.162530088029E+01 2.176296436387E+02 1.418722580057E+02 -9.199640396497E+01 1.247154392208E+02 -7.849680535135E+00 -3.006835343426E+02 -3.967058845958E+02 -9.447894164300E+02 -3.891959141616E+02 6.000992470624E+02 7.338004623669E+02 1.304212111158E+02 7.585039748197E+02 1.972254158336E+02 3.742988066804E+01 1.607859837528E+01 1.112478660049E+02 -6.540023661822E+02 -6.613562250715E+02 -3.477955911203E+02 -3.157133390175E+03 2.870286440198E+01 5.721843752852E+03 -1.390204754047E+03 1.834748903453E+03 1.301416963498E+03 7.818837300320E+01 8.111000921324E+01 2.539720168406E+02 -1.130933119873E+03 -1.539901236866E+03 -6.317204032510E+02 -4.824639535807E+03 -2.204846619379E+03 -5.332622024771E+03 -3.973831669939E+02 1.849292370438E+03 1.035186920591E+03 -4.103048450461E+02 1.836753066921E+03 -7.892677098484E+02 -1.046538898367E+04 5.255705491186E+03 3.612790420775E+02 3.094614814226E+04
 3.611270094075E+02 -1.945840729426E+03 -1.101782875462E+03 -1.089829727214E+02 -1.360610535315E+02 2.487638487246E+03 2.063300368517E+03 -2.644443329602E+03 1.091663782246E+03 -1.904186144228E+03 -2.396267447528E+03 1.220912427647E+03 -3.161752917103E+03 9.220657217696E+02 1.235103399602E+03 4.378431915258E+01 2.877689364720E+03 1.029794647346E+03 2.712988699629E+03 3.027247901774E+01 7.052434089208E+02 -1.740672072424E+03 -4.816404071402E+03 1.536588323969E+02 -3.656294778112E+03 -1.246509997005E+03 -9.647703608151E+02 -1.445033250620E+03 3.367174792754E+03 -5.174020041260E+02 2.943056518127E+03 1.837383563132E+02 -1.343560021677E+03 2.252763553327E+03 -4.022841817345E+03 -2.660603529172E+03 2.391508334725E+03 -1.166687257911E+04 -6.459104838941E+03 1.578017661774E+03 -9.760329946867E+03 2.555308035647E+03 2.238777902291E+03 -3.894657675728E+03 -1.728975918342E+03 -1.685371992520E+03 4.478503441369E+04
 3.506212319427E+02 -2.150011628745E+03 -2.355989701975E+03 -1.644847949510E+02 -3.389079308020E+02 4.754389066659E+02 -1.055023331646E+02 -1.459606075359E+03 -2.838229960810E+03 -5.543548604591E+01 -1.409530604833E+03 -9.531145727045E+02 -1.183256352563E+03 2.393145094764E+02 1.275173836421E+02 -8.599493338872E+01 1.092650585441E+03 1.245918876002E+02 5.608846690907E+02 -2.847782262107E+02 -3.916432938517E+02 5.015927594299E+03 -1.733564342807E+03 -8.525588009381E+03 -8.580747512186E+02 -9.235500495207E+02 -8.026371682012E+02 -4.924485401313E+02 1.320347935203E+03 -1.542052473276E+02 1.067677907721E+03 -1.701169512193E+02 -6.609638026285E+02 -3.106101448614E+03 -4.105228789260E+03 -6.591356348922E+03 1.284635164945E+03 -4.904266294662E+03 -2.736717379454E+03 -9.207714334385E+02 5.506015402295E+03 -4.135414421581E+03 -9.651007629938E+02 -6.261246862196E+02 -6.209713587377E+02 -1.993355995292E+03 8.180862374310E+03 3.161124740939E+04
 -1.108776395619E+03 9.831084440624E+02 -5.937581981398E+02 -1.712553340102E+02 1.711649218551E+02 1.393141155332E+03 9.637010115119E+02 -1.134311952664E+03 4.202338330091E+02 -1.085842331418E+03 -1.671423350088E+03 4.785021683906E+02 -1.706636821062E+03 4.154982834336E+01 1.464834287698E+03 -3.945281047027E+02 1.925788600010E+03 5.827405199647E+01 1.468458753287E+03 1.120745000760E+03 7.424297065204E+02 -1.328445569897E+03 -2.503291239399E+03 -3.473126782756E+02 -4.705732927711E+03 -2.705812138272E+03 2.802146116781E+03 -2.880900164887E+03 1.426939551612E+03 -4.323635818650E+03 -6.505624063651E+02 2.305952406776E+03 -1.653267344191E+03 1.632065936495E+03 -8.715906654732E+02 -5.565544738864E+02 -6.263493171329E+03 5.721004206819E+03 -4.476360888310E+03 -4.930214682924E+03 4.880513007730E+03 2.345965861213E+03 -2.249286082888E+03 -2.657297390552E+03 -9.201639050437E+02 -7.683217646561E+02 -3.639476276073E+02 -7.442022172783E+02 3.723544882589E+04
 1.278198183846E+03 -1.100430941440E+03 8.961762757848E+02 -2.688772482468E+01 -1.103705427962E+02 -2.006824817138E+03 -1.482208036800E+03 2.034034714356E+03 -8.814328434601E+02 1.662910337000E+03 7.501196679091E+02 -2.133186121957E+02 2.598809251727E+03 -1.014619795389E+03 -3.005612255953E+02 -6.584941909685E+02 -2.399225376463E+03 -1.349094419737E+03 -2.643831836919E+03 -4.046871443605E+02 -1.155571102813E+03 1.605137430011E+03 5.651979316063E+02 1.546079470314E+03 1.967414412353E+03 -4.488130126061E+03 5.239405046449E+03 -2.068595811465E+02 -4.980765913574E+03 -3.546073671431E+03 -3.024627947965E+03 -1.889323679958E+03 6.979972042323E+01 -2.547065151660E+03 1.266650222855E+03 3.571178022655E+02 6.637056239319E+03 -6.146914505411E+03 4.506312669693E+03 4.833691475561E+03 -5.012650693444E+03 -1.791033388240E+03 2.227106435350E+02 -1.197368117547E+04 7.068063944833E+02 1.104691860336E+03 -8.230375989756E+02 9.369758709691E+02 -7.170439055394E+03 3.898350239860E+04
 -1.671070867729E+03 1.646713536963E+03 -2.323411406005E+03 -6.532201575517E+01 4.515532089651E+02 4.612413095900E+02 7.373808756300E+02 -7.954739443866E+02 1.107549981256E+02 -4.421965910562E+02 -1.844365702075E+02 -4.416740934740E+02 -7.062880859431E+02 1.286890409824E+03 -2.688996327139E+03 -7.075523632454E+02 1.210109140746E+03 -9.598904884541E+02 9.945957309727E+02 5.484274562507E+02 1.852310495524E+02 -8.089020293406E+02 -5.556802959240E+02 -6.572379721617E+02 1.934989956882E+02 5.159542673986E+03 -6.384757655510E+03 -5.045936623064E+03 -1.447783742338E+03 -8.621223986498E+03 1.838172464721E+02 1.191918148952E+03 -7.547217307492E+02 1.172266173439E+03 -7.682247931823E+02 -2.156306214270E+02 -3.899557642518E+03 3.151299003779E+03 -2.519683934421E+03 4.021766955887E+03 -4.150736886733E+03 -4.427807287740E+03 -1.515539845224E+03 -8.738244589325E+02 -6.129501236313E+02 -7.878506410469E+01 -1.298796403968E+03 -4.474472182621E+02 5.928611681107E+03 -5.237126485639E+03 3.143492686726E+04
 -3.784723170428E+02 -1.071759871978E+03 6.137845384840E+02 -8.311899206836E+01 6.275187525628E+01 -1.530908694019E+03 -7.174462271513E+02 2.119227489526E+03 -8.005207403042E+02 9.763540751710E+02 1.530658790204E+03 -7.738589619141E+02 6.266430723520E+02 -1.161909582969E+03 -7.553877187565E+01 -2.931316606273E+02 -2.114356195107E+03 8.498280475164E+01 -1.838401264345E+03 1.658891876083E+02 -1.407513099348E+03 5.084358961212E+02 2.198253495054E+03 2.217061290510E+02 2.218360536389E+02 -1.210629087181E+03 1.218693126576E+03 -4.626391859389E+03 -2.147414206982E+03 5.793388514619E+03 -4.417163965709E+03 -4.366651586221E+00 -4.608198512379E+03 -2.222193210032E+03 2.599102072681E+03 -4.727484706797E+02 -2.466744227274E+03 -5.430661968838E+03 2.916896183242E+03 -2.220064538759E+03 -3.971594020632E+03 -9.351845853877E+02 -5.925637233769E+02 -1.055974179684E+03 7.259492818529E+02 -5.133200845015E+02 1.029690717273E+03 7.579727291525E+02 -1.183705067323E+04 -3.430136480392E+03 4.651017617968E+02 3.441666053755E+04
 -6.702606140462E+02 -1.767474930073E+03 8.573708346277E+02 -9.508545003304E+01 -2.088497080246E+02 -2.106989777040E+03 -2.087706122520E+03 1.801873827247E+03 -8.670622347288E+02 1.129928476324E+03 1.999605991610E+03 -8.440773792364E+02 2.441519353219E+03 -1.125705171855E+03 -6.931980693886E+02 3.330316450754E+02 -2.659920605691E+03 -1.488387446575E+03 -2.552633274757E+03 -9.811034601131E+02 -8.046521969365E+02 6.686768972800E+02 2.872694566825E+03 7.691765304612E+02 3.182746229728E+03 -8.616829410763E+02 7.638680904487E+02 2.711777228183E+03 -4.424421323848E+03 -1.053735777236E+03 -1.861923067639E+03 -3.719773650089E+03 3.434846825815E+03 -2.994278263044E+03 -4.745328209478E+02 1.492987760956E+03 -4.452586588932E+03 -9.904962196889E+03 5.614882477584E+03 -4.030324032101E+03 -7.671188972311E+03 -2.522791539705E+03 6.647554057954E+02 -1.006578210873E+03 1.144140938393E+03 -8.039780848229E+02 -1.042786564201E+03 1.024204174006E+03 -5.145024132975E+02 -2.705482547318E+03 1.084969837257E+03 6.282254266061E+03 4.175394011071E+04
 9.288752894898E+02 2.065053933178E+03 -2.258248604035E+03 3.668142207209E+02 2.452096247547E+02 4.839144580627E+02 8.398937529215E+02 -8.688638839217E+02 3.575313035839E+01 -4.547804499339E+02 -9.005584359190E+02 1.537662957636E+02 -3.069733989500E+02 4.835178514205E+02 -3.931029565426E+02 9.826016378499E+02 1.125104501694E+03 -2.819597660634E+03 8.851712273948E+02 1.099937384666E+03 -8.102206106543E+02 -3.319088674353E+02 -1.378121750880E+03 -2.861321882729E+02 -7.787427348850E+02 6.241503151243E+02 -6.065325376084E+02 5.001483350356E+03 1.486859522857E+03 -6.400786493729E+03 -2.830669907214E+03 4.536638085382E+03 -8.339439777309E+03 1.194064517049E+03 3.036686633494E+02 -7.630846828446E+02 1.658284206980E+03 4.492965538515E+03 -2.437663549648E+03 -2.757028953812E+03 -5.092089284625E+03 -4.404225262690E+03 -1.256023834119E+03 -3.933839360397E+02 -4.923452683268E+02 9.598291717303E+00 -1.245706397852E+03 -4.483313863410E+02 -1.156658247797E+03 1.110158652729E+03 -5.551080652941E+02 -3.282003538100E+03 -7.203560054608E+03 3.099272266343E+04