#BIOSYM hessian 1
@Type: Hessian Update
@Units
 distance: 	A
 energy: 	Kcal/Mol
#header
@natom 19

#label
L1      L2      L3      L4      L5      L6      L7      L8      L9      L10     L11     L12     L13     L14     L15     L16     L17     L18     L19

#element
Li Li Li Li Li Li Li Li Li Li Li Li Li Li Li Li Li Li Li

#matrix
57
 2.951884290041E+01
 -1.591588954036E+00 1.460783602494E+01
 -2.657548398593E+00 -2.733744422684E+00 1.517613882679E+01
 9.279478630827E-01 -1.297802478246E-01 1.048416767133E+00 2.516420452253E+01
 2.013289255509E-01 -1.547247463584E-01 -2.137953132109E-01 -1.256178299347E+00 8.222983694421E+00
 -5.599195830685E-01 -2.043984048055E-02 2.191176745637E+00 -2.013055882211E+00 -3.712787682691E+00 1.820276136006E+01
 -3.992330302852E-01 1.605094290810E+00 -1.676081540106E+00 1.371827707757E+00 3.406778121922E-01 1.648385820544E-01 1.827465180040E+01
 3.084247910405E+00 8.409111604650E-01 -1.824707616541E+00 1.216172839137E+00 1.501073112014E-01 -4.520989049660E-01 -7.598718632078E-01 2.703347773056E+01
 2.981938211309E-01 5.200199619998E-01 -1.307379473846E+00 1.616012465744E+00 -9.827785796106E-02 -5.626736942684E-02 2.926697815139E+00 1.545127825391E+00 2.798537566971E+01
 -5.609959325989E-01 8.031841066415E-02 4.904897118418E-01 -8.805078142173E-01 -2.158741654123E-01 -4.537254747182E-01 4.961970665832E-02 -2.043996104567E+00 3.822421519551E-01 1.877597491032E+01
 -9.505103120201E-01 -5.755711756776E-01 -5.507061150128E-01 1.673430157473E-01 7.353845048732E-01 -1.651695218939E+00 4.331672486793E-01 -7.478787028183E-01 -5.289842840105E-02 3.526777814511E+00 2.917939792823E+01
 1.137721742175E+00 7.970891763669E-02 6.167188747179E-01 -1.370767939183E+00 -4.383129578246E-01 2.755640720398E-01 -1.415364533789E+00 -3.226317325027E-01 -3.053408304785E-01 -4.060024638803E+00 -3.603665238395E+00 2.584545263509E+01
 -2.001624536290E+00 -1.638103104273E+00 1.685491972747E+00 4.612948424976E-01 2.952644882315E-01 3.189795111858E-01 -9.340565417801E-01 1.898206980900E-02 1.499403448707E+00 -6.571869386082E+00 -3.511906691258E+00 -1.918134301954E+00 2.036385232757E+01
 -1.554095447199E+00 1.425829150035E-01 1.798494454961E-02 -6.592606784343E-01 -3.316290432115E-01 2.445267437683E-01 -4.894615341787E-01 -7.929646015614E+00 2.543259311892E+00 -3.066711953625E+00 -4.144912679688E+00 -1.127627347439E+00 1.703844441101E+00 1.934823634236E+01
 7.699125857586E-01 -3.329062323375E-01 -3.332910723017E-01 2.079838996903E-03 1.171382711477E-01 4.017302599217E-01 9.127298175528E-01 2.735340942319E+00 -1.834245584035E+00 -2.457296279837E+00 -2.329455454724E+00 -1.402906633166E+00 5.139116495847E+00 -1.134093414328E+00 2.337899708389E+01
 -1.169567118734E+01 7.033115421562E+00 1.240225082659E-01 -3.338601890612E+00 -2.071578056225E+00 2.077807049962E+00 -5.143721111271E-01 3.946226708082E-01 2.636561201590E-01 2.319750153558E+00 -3.996597794819E-01 -1.540300579829E+00 -1.313249776911E-01 4.954083221210E-01 1.237864984955E-01 3.613615929644E+01
 6.600308962480E+00 -3.464689668103E+00 -4.320870202933E-01 -2.013088341237E+00 -1.291033657436E+00 1.277648667560E+00 -1.023076874385E+00 -1.622745294771E-01 -2.917856013274E-01 8.036815219505E-02 4.289573957600E-01 7.827981801687E-01 8.387976552997E-01 3.215051853689E-01 5.375176447494E-01 -1.113440962543E+00 3.309197497553E+01
 3.835759280633E+00 -1.347087399986E+00 -1.535358817882E-01 2.613890197404E+00 1.936148338023E+00 -1.777461191268E+00 -3.510139313089E-01 -3.165514459696E-01 7.600034251221E-01 -9.714349266285E-01 1.414762899813E+00 2.304582101611E-01 3.920885363862E-01 -4.356615486435E-01 7.855713803147E-01 1.948429686801E+00 -7.964491618759E+00 2.918838252477E+01
 -7.549765632891E-01 -2.645303317733E-01 8.259224988947E-01 -1.621432798732E+00 8.094493013225E-01 -2.289633004459E-01 5.266352530819E-01 -4.656936717015E-02 -4.542977884282E-01 -1.899239085417E+00 9.011844881184E-01 3.498638043334E-01 4.855782422243E-01 -6.923829341127E-01 2.409017369180E-01 -6.669838703219E+00 2.121054658231E+00 7.075199840088E-01 1.935284984052E+01
 1.911114284979E-01 6.434304847654E-01 -7.413391551090E-01 -2.001700733151E-01 -2.292606735423E+00 1.387114796109E+00 -2.119329521378E+00 -7.010644281780E-01 -1.544624170023E+00 2.514237346547E-03 2.963915790162E+00 -1.274857459140E+00 -6.842512886283E-01 -1.273135193240E-01 1.370201719393E-02 4.960039851228E-01 -3.831857490457E+00 1.234682194143E+00 -2.336940070070E+00 2.128296356889E+01
 -6.054474910011E-02 7.234830906993E-01 -9.679523872933E-01 2.200730848043E-01 1.379859099363E+00 6.261109143602E-01 -9.544700780969E-02 6.997643151945E-01 -1.211735014466E-01 3.457757184636E+00 -2.241853195561E-01 -1.752009780394E+00 -3.374314837289E-01 -9.051861280586E-01 5.735385668965E-01 -9.667825893203E-01 -1.756656226517E+00 1.063026395572E-02 9.256293051616E-01 7.286011442438E-01 1.853488727828E+01
 1.402193609927E+00 -2.969269216648E-01 -8.412904549172E-01 5.537293229747E-01 -7.307653984212E-01 2.262898771215E-01 1.665726506444E+00 1.121217868985E+00 4.962423284778E-01 -5.586536774232E+00 8.382750120118E-02 2.244655003502E+00 3.200698051101E-01 3.061127731696E-01 -8.685140814529E-02 -5.431825277753E-02 -1.782946357172E+00 2.532676413710E-01 -1.492802574418E+00 3.583122508358E+00 -1.560578062459E+00 2.328901785908E+01
 -7.024349490027E-01 2.002316115998E+00 -4.700477855441E-01 1.716628389618E+00 3.996346160115E-01 -1.766590536537E-01 -9.766268363981E-01 7.224015354406E-01 -4.050413169844E-02 2.122058155443E+00 -1.178454414329E+00 -1.530507447243E-01 -1.339636315535E+00 -4.281992440681E+00 -3.701734405891E+00 1.461796914145E+00 1.062702445129E-01 9.201432023832E-01 -1.015707214251E+00 -6.319335114773E+00 1.180614674079E+00 -7.719639723422E+00 3.006523211337E+01
 2.772078219050E-01 -1.167371725597E+00 8.781216000117E-01 -6.056323685068E-01 4.205482829934E-01 -6.211471805376E-01 -2.693882449403E-01 -1.220655716935E+00 3.675621057368E-01 3.741918063871E-01 1.582983819349E+00 -1.377826806709E+00 1.342302195818E+00 -4.023311880521E+00 -5.653373488492E+00 -3.796430621576E-01 -8.123976041273E-01 1.567937554314E+00 -4.624910518469E-01 4.175796854927E+00 -4.815371464697E+00 4.303199469146E+00 -7.576058331139E-02 1.784345462243E+01
 1.386974778498E+00 -1.337925251361E+00 2.000418911552E+00 -1.191911186784E+00 -1.943633908217E+00 8.740952808126E-01 -8.679360839473E-01 -4.366593605440E+00 -1.298543952044E+00 2.739839007382E+00 -5.208698689508E+00 3.362515257688E-01 4.333477047165E-02 2.456177376613E+00 5.165347595367E-03 -1.018600662573E+01 -5.972620319421E+00 -6.291613399861E+00 -2.243747510599E+00 1.610120174182E+00 4.289646086201E+00 6.248764487260E-01 -3.697467187713E-01 -1.331641656386E-01 5.164594998099E+01
 -2.992515966386E-02 -1.185396418195E-01 2.265542274970E+00 -5.851119442901E-01 -1.824333181183E-02 2.270041305717E+00 -3.344717214784E-01 -9.709479759519E-02 -2.005418669876E+00 -3.164242938271E+00 1.844764435454E+00 4.258859373947E+00 7.754119616625E-01 8.593473602497E-02 -6.540473893065E-01 -6.363343422738E+00 -4.321953292510E+00 -2.841437907183E+00 4.960536586339E+00 -8.903769590436E+00 -5.147763269318E+00 -1.445601645808E-01 -1.532343619929E+00 1.756748300953E+00 5.219182586457E+00 6.056811053271E+01
 3.276553001205E-01 -4.001528140592E-01 1.560683013688E+00 -8.234951282598E-01 3.169650824387E+00 -1.798143804300E+01 -1.677149316492E+00 -4.175033408363E+00 -1.063437125028E+01 -1.891118575412E+00 3.167827029939E+00 2.761553952153E+00 8.411533149643E-01 2.261569504809E+00 -5.036782162990E-01 -6.342578101685E+00 -4.813498234746E+00 -1.389889778464E+00 1.582429572874E+00 -4.874183698291E+00 -1.485064318897E+00 -1.086378866553E+00 -1.100384565108E+00 2.070498382397E+00 -8.542359439835E+00 6.395458995495E+00 4.616073529900E+01
 -8.946312550752E-02 -7.218903049662E-01 5.270835578751E-01 -5.140988515273E-01 -1.073950493250E-01 6.828979987276E-02 -4.377028490289E+00 -4.081731601274E+00 1.957146744598E+00 -1.696382954442E+00 -1.874661571133E-01 6.390346613060E-01 -5.938150141702E+00 4.201661746556E+00 -1.990614707043E-01 -4.695975823206E-01 3.927984634037E-01 2.425233963783E-01 1.244930108625E+00 8.843514870754E-01 -2.537744851843E-01 -8.659626909621E-01 6.172857331733E-01 2.002994195519E-01 1.108033314664E-01 -1.158643735639E+00 -1.194006882368E+00 1.834955723809E+01
 -1.355606320905E+00 -8.153740535566E-01 -5.686842690911E-02 -3.693393083229E-01 7.912535327713E-01 1.711520406229E-01 -2.648408314286E+00 -3.396722616040E+00 4.354159782425E-01 9.333256281057E-01 -7.303592237499E+00 -2.830913318346E+00 4.247312566524E+00 -1.458304833225E+00 -2.338889347408E-01 -4.761360983284E-01 -1.384747524211E-01 4.206309931711E-01 2.965638191602E-01 -3.801998334037E-01 5.648334003877E-01 4.861707138636E-01 -1.356652948645E+00 -6.792710263493E-02 -1.898654820571E-01 8.987549254175E-01 -3.534903517061E-01 -2.055565571614E+00 1.955425954517E+01
 -5.869856446778E-01 4.149131092405E-01 -3.308381530843E-01 -2.617915953923E-02 3.977196308992E-03 -2.394928049392E-01 2.424296041331E-01 7.536567584079E-01 -2.270296755126E+00 -1.100897218547E+00 -1.903322359129E+00 -1.286262821040E+00 5.527304754135E-01 1.498392391218E+00 2.219826666097E-01 -1.060772945139E+00 -1.102492441262E+00 1.703047240359E+00 -8.024834233840E-02 -1.174111160985E+00 -7.020862577446E-01 8.092955817726E-01 -2.278143708863E+00 3.631552139632E-03 -3.466802812951E-01 1.791434887839E+00 4.344524033904E+00 -2.854277094042E+00 2.128994184962E+00 2.311083078706E+01
 -6.358045365804E-02 1.857087749852E+00 -4.650027098133E-01 -1.433004395157E-01 -8.305479583232E-01 -3.429702975003E-01 1.356390123571E+00 -1.063696042265E+00 3.753327308593E-01 -1.259920316560E+00 1.639475861752E+00 -3.745811076940E-01 -9.926315810144E-01 -1.659784446528E+00 -5.222566792068E-01 -1.406837450639E+00 -5.018012432578E-02 5.234234526065E+00 8.480071973711E-01 2.615943528204E-01 -7.414519181140E-01 -2.047449105889E+00 2.770470612844E+00 1.292483078648E-01 1.835288988840E+00 -3.149689328732E-01 -1.146570575827E+00 -2.916150481357E+00 -3.953995064882E-01 -3.484433303841E+00 2.518912551679E+01
 2.975146003816E+00 -4.527686506623E+00 4.319526684444E+00 -8.655473052319E-01 -5.883437489050E-01 -7.324547335675E-01 -2.452655532306E-01 -1.806020596077E+00 5.708834558647E-01 3.935174803465E+00 -4.078379083888E+00 2.734350939848E+00 -3.827790653613E-01 6.089027440478E-01 -1.547815120092E+00 -2.579475592130E+00 1.216822220588E+00 -4.719641853121E-01 7.262233428214E-01 -1.852659827590E+00 -9.741905089824E-03 -1.179655925024E+00 1.777015575812E+00 7.915130194213E-01 4.782189796379E+00 1.917843150809E+00 9.979534257430E-02 -8.193197164904E-01 -1.953945212499E+00 -1.535033907566E+00 1.273051744109E+00 2.441142417578E+01
 -2.201096262675E+00 5.170735270737E+00 -4.170070511148E+00 4.332752869738E-01 -1.753478006857E-01 1.358937530120E-01 1.395140546978E+00 1.745873145341E+00 -1.433945907789E-01 -4.764275345642E-01 9.797672996741E-01 -4.532446870727E+00 -2.544087272405E+00 -9.549790947711E-01 -1.142005934378E+00 6.449179064400E+00 2.697909501836E+00 -8.551074961390E+00 5.922763501590E-02 7.029777741173E-01 7.904585045075E-01 -4.794948277150E-01 2.246349381969E+00 -1.866600146742E+00 -3.876761304282E+00 -2.678518620263E+00 -3.367868702456E+00 -3.685763343692E+00 -1.998295569014E+00 -7.238410503649E+00 1.940986377571E+00 -3.031844079200E+00 2.492034215338E+01
 -3.958465842116E+00 -1.553910423546E-01 -2.623127831554E+00 -9.221687808155E-01 -2.993373138231E-01 -1.099917346356E+00 -6.813164970534E+00 3.709695400544E+00 -5.085085407701E+00 6.648853941929E-01 8.788097741648E-01 5.368194143287E-01 -1.411839539545E+00 -8.756145095194E-01 -1.278284396922E-01 2.087086504676E+00 -1.327918246912E+00 7.212688179435E-01 -1.559012399855E+00 1.372571578208E+00 1.059139943880E-01 -1.331423321611E+00 1.534993652789E+00 -1.206377005599E+00 -1.292687330240E+01 1.686632792290E+00 4.937646008520E+00 -1.837039742112E+00 -4.605419484197E-01 1.359105712307E+00 -3.319064054224E+00 -3.569599852961E+00 -1.672303474863E-01 2.911577498968E+01
 -1.875858052661E+00 -2.007589598504E+00 -1.570760366606E+00 9.048975536302E-01 1.670001165247E-01 1.569456266469E+00 -2.562017763339E-01 -8.308672226160E-01 -9.824505156516E-01 -2.884576465341E-01 1.689141253705E-01 -1.027372093953E+00 2.096115201232E-01 1.462678742844E+00 1.110980069189E+00 1.666019626926E+00 -2.275461837439E+00 1.463955418877E+00 -7.609240919266E-01 6.740732001812E-01 -3.731706417496E-03 1.582057412510E+00 -2.339960038554E+00 -5.682568365384E-02 4.102571937814E+00 -1.951563410868E+00 -7.632888736112E-01 -3.462648247000E-01 -4.790380813373E+00 2.688449929162E+00 -4.737749644049E+00 -1.138224663314E+01 -1.558201832478E+00 -2.605552496180E-01 2.556680356553E+01
 -3.708345819280E+00 -2.171697205846E+00 -3.557327392991E+00 -7.758535212553E-01 5.761345827150E-01 8.565088593360E-01 -4.029829191198E+00 6.815765280932E-01 -4.914970859055E+00 1.517450626206E+00 2.093031789179E-01 3.134690814804E-01 -4.084918359205E-01 -2.055616206964E-02 8.272265203631E-02 1.002207000655E+00 3.779612667912E-01 -2.715929567247E+00 -5.256091496570E-01 -4.090119979959E-01 7.000853529127E-01 2.433523190465E-01 -1.294973017055E+00 -2.000721567181E-01 7.138597223616E+00 -1.664276640633E+00 -4.168691599522E+00 -3.735112146229E-02 3.975517551466E+00 -5.665843353369E+00 -6.347746135734E-01 -8.397292450522E-01 -8.822997129715E-01 -1.962601172698E+00 -1.481159382463E+00 3.074500140799E+01
 1.051875107681E+00 4.300906287251E-01 -3.492855772798E-01 -2.176223515915E-01 1.449372143019E-01 -2.695620176575E-01 -1.478406598718E+00 -1.032506717855E+00 -4.537919257824E-01 3.710450983616E-01 5.552546363620E-01 1.042820760655E+00 -4.149200525793E-01 1.085206048213E+00 1.752288427748E-01 -5.937826044757E-01 1.167603002966E+00 -1.399076309162E+00 -5.489923839135E+00 -5.363581380665E+00 1.137874109056E+00 -8.915681260415E+00 9.916555602563E-01 -5.744431618141E+00 1.892679696098E+00 3.110204170009E+00 2.072447083148E+00 8.964986640867E-01 -2.524261808042E-01 4.784829956358E-01 -1.431729392136E+00 3.138339241861E+00 2.408932538507E+00 9.515816788011E-01 -9.935699120576E-01 5.875440466217E-01 1.732562090203E+01
 1.932429404937E+00 -4.026539362149E-01 5.158672990301E-01 1.086877134839E+00 -1.178672871436E-01 -4.342343212469E-01 1.531075510308E+00 2.151414577888E+00 1.632695654531E+00 4.224233277212E-01 -2.117794171092E+00 8.736462652151E-01 6.708791438405E-01 -3.175618592921E-01 1.779211993684E+00 -2.027359914292E-01 -1.307570571318E+01 2.081977623451E+00 -2.619226917710E+00 -1.097718921100E+00 2.313367294374E+00 2.321288680171E+00 -1.815786874135E+00 3.002469878340E-01 3.336192118341E+00 2.177623943437E+00 -6.732485937458E-01 -5.180788395382E-01 8.082795687175E-01 1.946586419911E+00 2.617677574430E-02 -5.999579912094E+00 -4.104329098292E+00 -3.027787564452E+00 4.382278670659E+00 1.152393583611E+00 2.275267843801E+00 2.718154753516E+01
 -1.253170096590E-01 -8.200767197919E-01 -1.463967144859E-01 1.103618062961E+00 -1.218288854727E-01 -1.143188742171E+00 8.951478105281E-01 8.470988722943E-01 1.860941067714E+00 1.535814628868E+00 4.674018414036E-01 -1.106125906793E+01 -6.406733629398E-01 -9.869005105114E-01 -3.883820721047E-01 3.718708674096E-01 4.566908026158E+00 -1.763198130555E+00 1.336618685834E+00 1.428794773939E+00 1.755033354830E-01 -5.667902566631E+00 -1.249799647354E+00 -4.135119906895E+00 1.115999222498E+00 -5.217812862253E-01 -1.735314846060E+00 -6.618719514558E-01 5.415132297870E-01 5.687691392604E-01 1.831219197025E+00 -1.460768300599E+00 -1.665291124949E+00 -2.115321767398E+00 8.937613681414E-01 6.122055626688E-01 4.082503267766E+00 2.156491164133E+00 2.326473047420E+01
 6.250581986216E-01 1.100261307022E+00 -1.898506166402E+00 3.725040090257E-01 1.591319600991E+00 6.947187342331E-01 -4.278993846796E+00 -8.154504402621E-01 -3.048504305037E+00 -3.837884337064E+00 1.744056047455E+00 3.359264469590E+00 -3.579227453040E+00 -1.871316854163E+00 -7.426545735267E+00 -4.870064900694E+00 1.270229332840E-01 1.030087734358E-01 -7.869782086532E-01 2.914388514049E-01 -2.355154266397E+00 -4.974408437422E+00 7.162206157518E+00 2.394220047184E+00 -4.956890098077E+00 -4.856004335196E+00 6.564749008021E+00 -3.881529824270E+00 4.481794252742E-01 4.183960098586E+00 -1.083068222934E+01 -4.538315085085E+00 1.873285504915E-01 3.428706561237E+00 2.346089317254E+00 -3.358990185619E+00 -3.901178535122E+00 -5.197740682264E+00 -2.186040681165E+00 5.244558673433E+01
 2.097562107745E+00 1.259166989120E+00 7.165122400979E-01 -2.944403167032E+00 -2.034153500065E+00 3.016819587974E+00 -2.575355253426E+00 -5.803640424972E+00 -2.552089693144E+00 -3.717422080941E-01 -1.623029957752E+01 2.055783692091E+00 2.655434870963E-01 -8.673025707450E-01 1.020292000850E+00 1.036123180058E+00 -1.189081452670E+00 -2.224570290535E-01 -1.583011179576E+00 7.992962686472E-01 5.614994559530E-01 5.712192763466E+00 -8.120204942113E+00 -5.940430214027E-01 -3.376913768000E-02 -1.722183910185E+01 1.070009196261E+00 3.103775055828E+00 -6.963260395224E-01 -5.153248304892E+00 1.179460508766E+00 3.368435194671E+00 2.369075944306E+00 2.459126967464E+00 -5.333227050334E+00 -1.884716405882E+00 -3.660418825608E+00 -8.341190294623E+00 -5.387480707771E+00 1.981648641620E+00 6.221289074997E+01
 -8.783907163653E-01 1.749763623594E+00 -2.023159287837E+00 7.331905820204E-01 1.374319393557E-01 -4.553208473420E-01 -4.898693863967E-01 -6.927887804059E-01 -3.876450993115E+00 3.523542025386E+00 5.690207670816E+00 -8.624689841386E+00 -8.083904504539E+00 1.366023493189E-01 -9.354733076165E+00 1.077553277069E+00 -7.615262610330E-01 -5.683421919429E+00 -2.168372980239E-01 2.094262081973E+00 -2.112271151781E+00 1.514812608242E+00 3.088783543682E+00 -2.074195861828E+00 1.336203226556E+00 -2.059511566886E-01 -8.644461938850E+00 4.907681592121E+00 -4.148426632950E+00 -1.135535656985E+01 -2.255676721951E+00 -1.627849858215E+00 6.788783176201E+00 3.125341960428E+00 -8.089982498645E-03 4.134128301674E-01 -4.572455767924E+00 -8.119780568305E+00 -5.015299554842E+00 2.731001285587E+00 3.163321200499E-01 5.056729740176E+01
 2.877586739551E-02 2.198081260725E-01 1.028677432559E+00 7.670315470006E-01 1.053606451289E-01 7.296792109756E-01 -1.296074580181E+00 7.376252653580E+00 3.970740869182E+00 -2.117766421665E+00 -1.482074181214E+00 6.120743737068E-01 -1.127672638250E+00 -5.902416123467E-01 2.668750767148E+00 -9.442935802654E-02 1.370291203681E+00 -1.598993077017E+00 2.103715463968E-01 1.985425092729E+00 -1.696105036909E+00 -2.697009493122E+00 -3.006651005031E+00 -1.108938614159E+00 -4.259358340920E+00 4.265436544889E+00 -2.881464029920E+00 -3.000965767846E-01 5.048314213907E-01 1.904701341571E+00 -2.054919575532E+00 5.661998437240E-01 -1.390338620006E+00 -1.738976276114E+00 -5.181525913947E-01 4.058334143556E-01 1.635047320776E+00 -2.225450130193E+00 6.762519026386E-01 -1.142780997314E+01 -4.885214554663E+00 -1.993605204786E+00 2.517415960726E+01
 -9.373208445772E-02 -1.508880019224E+00 9.626937512179E-01 2.177749395475E-01 6.596691631854E-02 -1.871398427446E-01 6.791280852383E+00 -6.519759144594E+00 -3.944222659695E+00 -1.171280532847E+00 1.451902019875E-01 3.042161022770E-01 -8.842042064266E-01 -8.209652563368E-01 3.434531241006E+00 -2.140841910687E+00 1.866293033645E+00 -1.154842986838E+00 3.809738038237E-01 -7.915224080633E-01 -2.321940335224E-02 -4.288448534760E+00 -8.577612723966E+00 -1.426392661095E+00 2.188480820424E+00 -6.747222090704E-01 2.418850319737E+00 3.741590491733E-01 -2.320750137994E-01 9.427912398565E-01 -3.662339201648E-01 1.589441633465E-01 -1.587829046761E+00 -1.677312625643E+00 1.076213529681E+00 2.937544009891E-01 9.261111180728E-01 -7.993751511167E-01 1.061844099103E+00 -2.148098761754E+00 -1.397414004120E+00 -1.557034093940E+00 1.603233358217E+00 2.165499940472E+01
 -2.378661259062E+00 -4.399316843606E-01 2.635433578708E+00 -5.360857893689E-01 2.622718631789E-01 7.370639788678E-01 3.674207607819E+00 -3.701117941559E+00 -2.602183619412E+00 6.490495745529E-01 -6.639323063466E-01 3.809104045632E-01 2.248713437427E+00 1.028272981369E+00 -4.768580515913E+00 -2.784658690125E-01 2.126951035011E+00 -2.383579294618E+00 -2.830625842180E+00 -1.797873626328E+00 -8.146575294222E+00 2.954403968011E-01 8.583443975217E-01 -9.530078766893E-01 -3.686622359961E+00 5.034045064950E-01 -4.367189201831E+00 -4.957059938055E-01 1.157432777070E+00 3.071765410136E-01 8.809660768466E-01 5.568336782594E-01 1.330359869516E+00 -5.502611060494E-01 -1.763009796704E+00 -1.015719889817E-01 -2.647440503423E-01 -2.024831470082E+00 -4.049341948359E-01 1.621945063789E-01 1.537035290072E+00 4.703123886280E-01 -1.259155805345E+00 -4.073072688812E+00 2.631734690955E+01
 -1.038874240680E+00 3.575235575881E-01 -2.080959230706E+00 -6.440871987065E+00 -3.349606619576E-01 -3.844093840430E+00 -1.646962565514E+00 1.289680990745E-01 -2.279013582112E+00 2.012927434465E-01 1.191651568912E+00 6.314923277237E-01 -1.761870059527E+00 6.302478981817E-02 4.409039711490E-01 6.996534369973E-01 -1.740262567823E+00 -6.867244308612E-01 -2.016085841896E+00 -1.819443084930E-02 6.325997925422E-02 1.151376965170E+00 -1.630031729419E+00 8.595584036536E-01 -2.094254805427E+01 -3.900376118117E+00 1.114711513307E+01 9.949748436745E-01 -3.360257008593E-01 -1.135441998670E+00 -2.715954712359E-01 -1.426715542433E+00 1.764012328903E+00 2.080833388447E+00 -1.576591586769E+00 1.825570054239E-01 -1.019035148130E+00 8.645761535368E-01 -8.398418804932E-01 3.476652775824E-01 5.264047817387E-01 -1.361610801916E-01 -1.472396433729E-01 -1.417555364026E+00 5.773519495839E-01 3.149822052865E+01
 -7.352237963112E-01 -3.097647261712E-02 -7.571479020869E-01 -1.302312569001E+00 -3.934835967600E-01 -8.388618425347E-01 -1.254839325756E-01 -7.296056343719E-01 2.181606941260E-01 1.265193434753E+00 3.790566841745E-01 1.828910828824E-01 -1.093437638638E+00 -3.775893225108E-01 -6.978498087615E-01 6.205708851461E-01 1.189150953335E-01 -7.271419693998E-02 -1.363467515085E+00 -1.893755490825E+00 9.651705473375E-04 -4.541140032792E-01 6.670252831182E-02 8.981624829702E-02 -4.014887359078E+00 8.218110289811E-02 5.402776733072E-01 -5.407882084377E-01 -3.716825224056E-01 5.778998858178E-01 4.429159129806E-01 1.068361211947E+00 2.550368758590E-02 1.078047584277E+00 -3.584129628250E-01 1.066066787815E+00 4.408261341288E-01 -5.376637803122E-01 -3.479033523249E-01 6.281375426570E-01 6.413337161959E-01 9.153802544382E-01 -2.926235980958E+00 -4.938764355322E+00 5.571094718859E+00 6.024308736549E+00 1.148083864165E+01
 2.515707766974E-01 4.640533318764E-01 -1.458361460984E+00 -2.871593239762E+00 -9.764154266022E-01 8.270294201081E-02 -1.664616656706E+00 -5.441871189668E-01 1.212154839356E+00 -2.615784352248E-01 -1.067160949588E+00 5.546685852942E-01 1.239085798857E+00 1.456763394015E+00 -8.931659804591E-01 -1.427030492217E-01 3.623840801894E-01 1.317026670936E-01 2.328566735041E-01 1.422573955485E+00 -5.790100129078E-01 -7.041377728897E-01 6.946106203009E-01 -3.016773385525E-01 7.882721302838E+00 -3.852346326392E-01 -1.450464398317E+00 2.244640469642E-01 -1.205146376335E-01 3.423610617531E-01 -4.514288007717E-01 9.520079619092E-01 -1.555197381969E+00 1.043443851383E+00 -1.829427554623E-01 -2.687947916323E-01 5.586866839486E-01 -1.164136201839E+00 -7.477119599110E-02 -1.131847261192E-01 2.051834450365E+00 8.076609647144E-01 2.389505217273E-01 5.038383969261E+00 -7.464482212474E+00 -4.809882521586E+00 -4.882810248917E+00 1.075389041050E+01
 -1.024089274940E+01 -4.441214014755E+00 5.407541664298E-01 -5.914107513405E+00 5.126604623783E+00 5.266077808635E+00 -1.633354838512E+00 -2.709212634556E+00 -1.253158526728E+00 -1.359051082872E+00 7.476301365352E-01 -1.692519270712E-01 1.150945764713E+00 2.111728435637E+00 6.375430326201E-01 -4.521647809668E-01 -1.244492632607E+00 3.366358960586E-01 7.240065138749E-01 -1.085466634614E+00 -2.049782961297E+00 -3.815573545383E-01 -1.791122499386E+00 2.114104913877E-01 -5.203073417862E+00 3.998092041871E+00 -1.540938740732E+00 3.301864672250E+00 6.137465453035E-01 -3.330690340490E-01 -1.757781598073E+00 -9.416084764154E-01 5.422551323630E-01 3.203287653118E-01 -4.098152553350E-02 2.676002557481E+00 -1.164209091298E+00 1.442182435639E-01 -2.865585549441E-01 -3.475395316371E-01 -2.534082755433E+00 -7.823412784588E-01 1.285600162319E+00 3.220141568011E+00 1.097480823433E+00 1.632620801402E+00 2.510060301900E-01 5.597941272032E-01 2.752909169360E+01
 -7.229048623041E+00 -4.438114091263E+00 1.283240490922E+00 3.623448969852E+00 -1.736486913042E+00 -2.528769154145E+00 -3.262343444960E-01 -1.549723641658E+00 5.631643121101E-01 -8.906348665401E-01 -7.820471778895E-02 -6.496129212864E-01 1.159317870724E+00 1.341244922377E+00 -1.031313549608E+00 -2.399154135896E+00 -6.223877653479E+00 -7.969188501828E-01 -4.191592544397E-02 -6.421531929801E-01 1.252698501599E-01 2.007163870499E-01 -1.930073553759E+00 1.309489314026E+00 4.418635200868E+00 -1.051094674847E+00 3.249583336605E+00 8.621477811771E-01 1.882919364828E+00 1.221898077385E+00 -1.117623169870E-01 6.231093438350E-01 -8.393567405451E-01 -3.763157687479E-01 -2.286679549924E+00 4.372745528064E+00 -6.324184684806E-01 1.275508331133E-01 9.816754604914E-01 -8.276612584039E-01 -3.045241787926E+00 -2.558579158889E+00 2.355491813041E+00 1.154209687073E+00 1.473971963849E+00 2.824399034229E-01 2.373884418506E-01 2.793433729253E-01 1.396150238347E+00 2.337194255631E+01
 2.711282319339E+00 5.506647746377E-02 -1.146063926808E+00 4.073313822913E+00 -1.775864860291E+00 4.633843713346E-01 1.460682383372E+00 -1.836585054455E-01 1.446220069764E+00 -6.796832803708E-01 3.652478435784E-01 -9.749396715460E-01 2.137103664655E+00 1.600633738357E+00 1.921370333759E-01 -1.734155038699E+00 -1.112339406253E+00 -8.831306837667E-01 1.790980072461E+00 -4.068902426879E-01 -9.221298783913E-01 1.099905855395E-01 -1.643166663290E+00 1.099537089688E+00 -8.172846508537E-02 3.962393624382E+00 -2.162873567704E-01 -5.288829616512E-01 1.243342345197E+00 1.612232870815E+00 -1.236247076782E+00 5.321463432695E-01 -1.059028113338E+00 1.013520283833E-01 5.041897404508E+00 -1.025014409330E+01 -4.423116153204E-01 1.424717284162E+00 5.085081278300E-01 -7.487833387027E-01 -3.993806250358E+00 -2.781125084497E+00 -9.312614961688E-01 7.773462566913E-01 -1.692935127374E+00 -2.058152260112E+00 -2.168477674379E-01 -3.464875667220E-02 4.012155342083E+00 3.987624560163E+00 3.579051375309E+01
 -3.832629656474E+00 -5.744761120866E-01 4.261451973332E+00 -8.517606047127E+00 -1.282051902615E+00 -1.796690258314E+00 3.024180483312E-01 -5.195852042959E-01 -7.853112985913E-01 6.656646588923E-01 -2.398717254197E-01 2.924781252400E-01 2.786450458667E-01 5.585925754268E-01 -3.206886265062E-01 -7.152872163948E-01 2.840172366815E+00 -4.237209831174E+00 5.192188763713E-01 3.937854034035E-01 -2.353810817367E-01 -3.071507868698E-01 -7.236961701871E-01 -3.054756432195E-01 2.198399565024E+00 5.187290078994E-01 5.608643826469E-01 -1.194580075828E-01 4.757279545105E-01 4.342883013733E-01 -3.935556054212E-01 2.678355167419E-01 1.496595457847E-01 -4.796969714472E-02 4.545468536655E-02 9.536732061525E-01 5.448873380079E-01 -6.339712668700E-01 -4.560968194702E-02 -4.842253472757E-01 4.767964947854E-01 -1.783698450592E-01 -4.789200799552E-01 -5.464669933070E-02 1.458927451517E+00 -1.192539481316E+00 6.434144167113E-02 -8.280503516061E-01 -9.579443277431E-01 -2.535361222133E-01 -3.398643047656E+00 1.340216256585E+01
 -1.388860668172E-01 -1.326528225826E+00 -3.876433442141E-01 -7.355579404111E-01 -1.536135508154E+00 -7.416913307527E-01 -2.626613496078E-01 5.837960792781E-01 2.115747315026E-01 -1.449140919923E-01 1.097427877758E+00 5.378091433002E-01 -5.491815650287E-01 -7.674129419554E-01 3.210291281544E-02 2.965680390199E+00 -2.964760257496E+00 7.031358368493E+00 1.329349512758E-01 1.841058521858E+00 5.999039946223E-01 1.172768226251E+00 -3.042192354152E-01 -1.859214778174E-01 -1.248267915517E+00 -9.229004329226E-01 -4.409112656850E-01 -2.760961040480E-01 -3.773261173286E-01 -5.328190459621E-01 3.039837852422E-01 -9.717196257531E-01 -4.058146384561E-02 8.839089655373E-01 8.247199172622E-01 -1.108432946076E+00 -1.044330638081E+00 -1.059380895633E+00 -1.024835112368E+00 1.228528243014E+00 1.458489568651E+00 2.072789450459E+00 -1.535972767782E+00 -1.081996715654E+00 -1.047967515205E+00 1.353134995076E+00 1.219073444841E-01 -1.384760267809E-01 -1.353666337370E+00 -4.229658752253E+00 -7.698209872931E+00 3.676571210178E-01 9.814102727315E+00
 4.105579369875E+00 2.645936463999E-01 -7.186055404915E+00 -3.370081418071E+00 -1.571215455246E+00 -2.869056143322E+00 -6.610767464878E-01 3.660438342407E-01 1.307078853082E-02 7.098230193878E-01 -1.134104900371E+00 3.091920148813E-02 -2.491404005613E+00 1.132518450672E-01 7.362738105344E-01 -1.319421520781E+00 5.936851329899E+00 -8.938000225461E+00 -2.561454091955E+00 -1.839141792630E+00 -1.731784626063E-01 4.399183664267E-01 1.666373632355E+00 -1.059379118465E+00 1.030726103645E+00 -8.974700000257E-01 -7.018953556206E-01 1.312298810971E+00 -1.581159839992E+00 -1.597520810646E+00 5.758608172726E-01 7.240434786660E-01 7.577990116771E-01 1.594029499040E+00 -1.254122119093E+00 -7.034193442442E-01 3.498087158598E-01 6.533094526637E-01 4.008571982542E-01 -8.935693945481E-01 2.445182250100E+00 1.222107186577E+00 8.635829579335E-01 -1.883414631369E-01 -1.021868882558E-02 1.020750990187E+00 8.090768279713E-01 2.304043785095E+00 -4.075769772996E+00 -8.058708246445E+00 -1.373434141189E+01 4.248739306459E+00 2.548377095041E+00 3.054362023366E+01