#BIOSYM hessian 1
@Type: Hessian Update
@Units
 distance: 	A
 energy: 	Kcal/Mol
#header
@natom 19

#label
L1      L2      L3      L4      L5      L6      L7      L8      L9      L10     L11     L12     L13     L14     L15     L16     L17     L18     L19

#element
Li Li Li Li Li Li Li Li Li Li Li Li Li Li Li Li Li Li Li

#matrix
57
 1.646613335563E+01
 5.210517607652E-01 1.236093354854E+01
 4.518886902779E+00 -9.551473687090E+00 1.951263446561E+01
 -6.996820788041E-01 -1.024775213725E-01 1.239605806961E-01 6.653193773521E+00
 -8.134396342502E-01 -5.531926489164E-01 -1.189120892677E+00 9.764216893180E+00 2.143952041853E+01
 -1.371004414313E+00 -6.929355240890E-01 -1.381425140891E+00 -7.564455063154E-01 5.748704578612E+00 1.273589653368E+01
 -4.214305947364E-01 -1.960700817438E+00 6.280226141565E-01 -7.653603298631E-01 -1.410449252624E+00 -1.317250086763E+00 4.344578466394E+01
 -8.825966746887E-01 2.137503906221E+00 -9.936145692046E-01 -5.968369471604E-01 3.009394974991E-01 1.370495971135E+00 -1.167053744542E+01 2.241727582650E+01
 4.850372839256E-01 -1.659865850295E+00 6.597518779995E-01 6.610677495326E-01 1.242189842929E+00 -1.094729767061E+00 4.336787866453E-02 -1.080765344102E+00 1.979616213752E+01
 1.137759048858E+00 5.172443819648E-01 3.909172066872E-02 3.373024039390E-01 -4.092267236187E-01 -1.248423031515E+00 -1.497648450787E+00 -7.637353143838E-02 5.762709105917E-01 1.694593986910E+01
 -8.990560373584E-02 -1.393694419930E+00 4.021980000710E+00 -1.956059673423E-02 -1.940630548171E-01 -1.266671946268E-01 -2.895024193223E+00 -1.565353989214E+00 -1.785079032374E-01 1.045194386667E+01 1.445341966077E+01
 8.922070681917E-01 5.273795144406E+00 -1.559531787865E+01 -3.990718842930E-01 2.377197527689E+00 7.500056636297E-01 -2.624276758735E+00 -7.825331842444E-02 -1.165962919444E+00 -3.108604543116E+00 -2.748656140198E-01 2.841546206864E+01
 -1.490595221898E-01 3.779024544006E-01 1.543794001260E+00 -5.697049307609E-01 6.829606407809E-01 1.858818513687E+00 -5.354376696110E+00 4.220031261265E+00 -2.413071535688E+00 -1.613335595844E-01 -2.455008774793E-01 -8.568210163960E-01 2.353244196759E+01
 1.164651658107E+00 -1.396092425399E+00 1.921533774002E+00 8.647591474489E-01 9.767687388329E-01 1.113777600891E+00 4.821924498639E+00 -3.556627828111E+00 5.503748323031E-01 -4.528170013071E-01 1.292346990649E-01 -2.172211325356E+00 -5.447683187309E+00 1.598663141629E+01
 3.880091974754E-02 4.364750482799E-01 -1.356857257138E-01 -8.497769475606E-01 -2.654151813284E+00 -1.618198568720E+00 -2.903685975144E+00 -6.177362794551E-01 -4.498794522954E+00 5.562100024439E-03 9.580951914759E-01 1.190720020849E+00 -1.209329954070E+00 3.576908584131E+00 2.335307722030E+01
 -5.237489749863E-01 3.534495408023E-01 -6.776568780482E-01 -1.403350715210E+00 9.653064196175E-01 1.611785459278E+00 -1.276393030025E+00 1.652538388536E+00 2.763858459927E+00 -1.535147175441E+00 -1.111002138369E+00 8.666039038132E-01 -3.356345009907E+00 1.999319858557E-03 -4.051879714176E+00 2.074589180313E+01
 -1.500428926258E+00 1.871865906282E+00 4.892991654185E-01 -2.473292054504E-01 -1.155147594376E+00 -1.924199524904E+00 5.101364415850E+00 -6.154142698855E+00 -3.176832813636E+00 -4.447626205777E-02 -8.872485676004E-01 -1.415593395451E-01 1.149786485301E+00 1.664620132387E+00 2.296111645242E+00 1.583874472538E+00 1.988924967459E+01
 4.135944833722E-01 7.526112083925E-01 -7.780746375926E-01 -8.917641393762E-01 -4.427212296952E-01 1.747509216027E+00 5.944949153820E+00 -3.991288929748E+00 -4.651229591524E+00 -7.195557615053E-01 -1.252189932325E+00 8.343125977476E-01 -6.169085586715E+00 -3.631920358305E-02 -1.134460776301E+01 5.239550088246E+00 1.176336623005E+00 2.361074535838E+01
 1.844942167595E+00 -3.452135317864E-01 6.980458415612E-02 1.401158179706E-01 8.496790457949E-01 4.974722102949E-05 -6.799505594015E+00 8.091767890444E+00 -4.367495010836E+00 9.921531090633E-01 7.183900697323E-01 2.708491230639E-01 9.886156610858E-01 -8.255024766369E-01 8.231707265137E-02 -3.592604774430E-01 -7.013304256420E-01 -9.303697147731E-01 1.066134220956E+01
 -4.601034777670E-01 7.123617768236E-01 2.392564853069E-01 6.003904855664E-01 7.516351828579E-01 -1.356434327814E+00 8.012058631464E+00 -1.054681875486E+01 5.771685847419E+00 -1.117700991303E-01 -2.873448335479E+00 -2.779495085440E-01 -9.651808563387E-01 5.384505317872E-01 -9.357935571578E-01 -2.348599822689E-01 7.906412985470E-01 1.393706115913E+00 -5.179647438551E+00 2.875749126196E+01
 2.441245816559E-01 1.011469457437E+00 -3.835881766602E-01 -8.507899504592E-01 -1.071609726507E+00 1.425424916367E+00 -8.982066193799E-01 2.437274806786E+00 -4.206349420222E+00 -7.290077940709E-01 -1.227823289832E+00 5.922565514113E-02 -1.730405376435E+00 5.846412485932E-01 4.190426368768E-02 -1.379907787150E+00 -7.620579202652E-01 1.610165584027E+00 -7.616322525819E-01 -4.273972073685E+00 1.911630128664E+01
 4.297686023895E-01 2.177147956087E-01 1.048394821831E+00 9.338814313233E-01 -5.179442760867E-01 -9.268123254867E-01 -2.567059895348E-01 -6.772725335014E-01 3.642880408402E-01 -1.516868387021E-01 -9.086357697754E-01 -1.950442173527E+00 -1.932310785794E+00 4.978798401038E+00 2.228091002091E+00 2.029784971054E-01 1.997962404383E-01 9.279894115689E-01 -5.602805555513E-01 -2.910717408026E-01 4.712648417128E-01 8.179286306075E+00
 -4.436540757232E-01 5.369943060385E-01 -1.603429072395E+00 -1.185408755769E-01 3.368111748686E-01 8.696258735343E-01 -1.345945247284E+00 -7.032494148514E-01 -1.204346627910E+00 1.133745277907E+00 6.346393073717E-01 1.130858104615E+00 3.728287878953E+00 -1.158007518562E+01 -4.559174627459E+00 -1.105824484630E+00 -1.171699939719E+00 -1.080705609470E+00 7.248897381521E-01 1.312320914940E-02 -2.920360920712E-01 -2.414354147868E+00 1.308490907879E+01
 -5.438536270246E-01 2.630345401323E-01 -2.934172359020E-01 3.375081804304E-01 4.172328305201E-01 6.677722210753E-01 -2.126854878341E+00 3.856420422986E-01 -5.844521868355E-02 7.927721683752E-01 1.023966239005E+00 6.896015792411E-01 2.420332852706E+00 -4.660557586408E+00 -1.085412669199E+00 -5.876778385733E-01 -1.197778602846E+00 -1.520697375289E+00 3.495398917277E-01 -1.572849756312E+00 8.783036392113E-02 2.050452107523E+00 6.854223793128E+00 5.968410135576E+00
 -2.724972551638E+00 4.770884859024E-01 -1.071632515816E-01 1.219349807140E+00 5.941147011428E-01 -2.377886571295E-01 -2.296577182309E+00 -1.110344849700E+00 5.453839801058E-01 6.120643157313E-01 6.659889269806E-01 -2.430323007807E-01 -1.480258664496E-01 2.138594854265E-01 -2.945510195565E-01 -3.812132994042E+00 4.147998160958E+00 -2.883780768854E+00 -3.697100078882E+00 1.485718398565E+00 2.298203155207E+00 -1.986580828625E-02 2.381440474898E-01 6.895957197696E-01 1.773443297283E+01
 1.691498489746E+00 -7.914277314635E-01 -2.934051841922E-01 -4.598605998818E-01 8.441405476421E-01 1.297890382784E+00 -1.998742071310E+00 1.575656325955E-01 -9.481551654377E-01 -4.482891683652E-01 2.119705207329E+00 2.718101873216E-01 3.298319155016E-01 3.360244463889E-01 -1.639845354003E-01 3.499156032672E+00 -5.261662559324E+00 3.847900156802E+00 1.740282423378E+00 -3.588415366618E+00 -1.364145942698E+00 -1.921822689654E-01 -3.902149051348E-01 -2.426983673813E-02 -1.252382214190E+00 9.239854845016E+00
 7.094320167086E-01 2.111259017253E-01 -8.831256642798E-02 2.800286095877E-02 -3.517674464843E-01 -1.460331356671E+00 -3.512347236237E+00 1.541634720096E+00 3.053434722035E+00 1.572044642893E+00 5.174340643595E-01 7.729400982444E-01 1.490247476957E+00 -1.699115979950E+00 1.660272156311E+00 -1.682139778141E-01 4.171220608162E+00 -4.644728172116E+00 4.663605794239E+00 -2.623841102398E+00 -7.058381407681E+00 -7.576149799081E-01 1.089088925722E+00 3.566971632384E-01 -7.967492944527E+00 -3.866142361439E+00 1.328064765037E+01
 1.463785360968E+00 9.184023300001E-01 -1.796937999248E+00 -2.392620806875E+00 -7.795253245744E+00 -2.949171307077E+00 -6.127774734402E+00 1.086310480016E+00 -1.592577489332E+00 3.579185673571E+00 2.941865904653E+00 2.943400808896E+00 -4.879720444107E+00 -3.531818324122E+00 -1.425676260107E+00 1.175477024496E+00 -2.736294146821E+00 1.932908072622E+00 1.731192873997E+00 -2.242027206742E+00 3.696669636193E-01 3.207841747610E-01 1.512073908807E+00 -1.612532568230E-02 2.319542152252E+00 9.768880408695E-01 4.854093497227E-01 2.346744576564E+01
 6.079563521124E-01 -1.876718839967E+00 9.945308991269E-01 -7.386384774869E+00 -1.692278840385E+01 -6.809666245004E+00 2.757309246436E-01 2.586639334333E+00 1.298429234213E+00 -1.264365576071E-01 -7.170255945870E-01 1.163119323486E-01 -4.285559902271E+00 -5.289192194608E+00 -6.047825036872E-01 -4.739806612346E-01 1.647565487854E+00 1.336746655187E+00 -5.294943023211E-01 1.986058143289E-01 -3.694216428026E-01 2.735153057582E-01 1.367216572842E+00 6.832021551895E-01 6.997360219721E-01 -1.087265282440E-01 -2.137083378976E+00 -1.149639908648E+00 3.945414972865E+01
 -2.532678778033E-02 2.830433163142E-02 -4.862264067675E-02 -1.403074869948E+00 -5.150187936568E+00 -2.127770234418E+00 2.209638815802E+00 7.052837538057E-01 -5.750878572508E-01 7.239559457970E-01 -3.934581752008E-01 3.486225186267E-01 -1.553507792561E+00 -1.554754368639E+00 -2.848348487093E+00 1.743583753653E+00 1.297695116411E+00 1.783142467308E+00 -1.117611609905E+00 2.856806956283E+00 4.881596695015E-01 1.065037547733E+00 5.341464372429E-01 -1.983396565125E+00 -4.982041736203E-02 -3.729873883408E+00 -1.751602691228E+00 9.243540455228E-01 7.376424122699E+00 3.003993876097E+01
 1.436631903832E-01 -2.276168262968E+00 1.595164511326E+00 -3.408912813313E+00 -2.195226884314E+00 1.920152945390E+00 1.216531608017E+00 6.984603147848E-01 1.840075489751E-02 4.134636475317E-01 -9.149225471832E-01 -4.341076187403E-01 3.666247041572E-01 -3.247068647468E-01 -1.262935362900E-01 6.357094715272E-01 7.843531204261E-01 1.055094858241E+00 -1.788004189606E-01 1.943244146279E+00 -7.936968677585E-01 -6.622614671258E+00 -2.332105205062E+00 -4.794572721802E+00 -7.591444376489E-01 6.064892945123E-01 -2.200823090456E-01 -2.286687295771E+00 1.922457391323E+00 3.379911116296E+00 2.260884447115E+01
 -1.446273787895E-01 -8.398539496140E-01 1.697870314499E-01 -5.881444144985E-01 -4.081288270927E-01 3.237272942292E-01 2.100325150016E+00 1.614705972306E+00 -4.033727090915E-01 -1.000099099770E+00 1.785981140501E-01 -8.116620433788E-02 1.035821356899E+00 -6.680364588438E-01 2.302576834073E+00 1.133097356902E+00 -4.032063895264E+00 -1.734920004024E-02 -9.469952273383E-01 3.592099018670E-01 8.105649837423E-01 -2.247535461871E+00 -1.172840499331E+00 -1.368710693399E+00 -3.972924690809E-01 -9.814764857352E-03 -1.135268365959E+00 2.163327076532E+00 -5.868342082107E+00 -5.369648556737E+00 -9.127580940746E+00 1.737660978955E+01
 -1.441596703018E-01 -1.462041987960E-01 3.349690130233E-01 2.252662566467E+00 8.621099504947E-02 -2.517558953115E+00 -4.709979678764E-01 -8.558438553573E-01 -3.395375303105E-01 -3.353560474817E-01 -3.016985610946E-02 -4.950226571176E-01 7.040479834289E-01 2.134442987374E+00 8.766820440002E-01 -1.224460398053E+00 -1.059339719231E+00 -2.472399284093E+00 -7.755365018152E-02 3.758611256674E-01 4.638036761359E-02 -4.662062436465E+00 -3.174954091414E+00 -3.165257335780E+00 1.249920123919E-01 5.353912154813E-01 9.884672747051E-01 4.355975770354E+00 -3.959233834033E+00 -8.840561637275E+00 4.739786105565E-01 4.987542695029E+00 1.584542646880E+01
 2.970257367948E-01 1.966714926767E-01 2.399350261982E-01 -7.848578568371E-01 -2.407940796479E+00 -1.995668473593E+00 -1.846163509113E+00 -1.615693191359E+00 1.761043609843E-01 -1.933228370593E-01 7.864979563054E-01 9.939856357654E-01 -7.454455026373E+00 6.487505767637E-01 7.004060968479E+00 1.540681175943E+00 -1.268886766590E+00 9.303187937735E-01 2.939298684164E-01 -6.032469364721E-01 -2.141824409527E-02 -1.746935337389E-01 -1.017880504118E+00 -1.988489839635E-01 -5.486242107714E-01 2.441333704287E+00 4.105656888049E-01 -2.145432140956E-02 -9.415373846952E-01 -3.173358676568E+00 -2.699960902084E-01 1.690786396068E+00 4.865906975373E-01 1.629302067853E+01
 1.367922230558E+00 -1.842758571871E-01 1.011437948602E+00 -5.603641720865E-01 -3.804210403158E-01 2.878371064190E-02 -8.348022722533E-01 -3.172501023326E+00 9.062210578404E-01 4.488690539815E-01 9.004811755304E-01 -7.301296675430E-01 -3.491147057348E-01 8.302790791768E-01 1.329886322642E+00 7.017860009660E-02 1.127446583185E+00 -3.022459622730E-02 3.783128377455E-01 -9.186455530485E-02 5.514648804555E-01 3.290059872256E-01 -8.201002719380E-02 3.859258233870E-01 5.748332763211E-02 7.432042245242E-01 1.748542201887E+00 3.835809811857E-01 -4.624368955485E+00 -4.719704699324E+00 2.924736694803E-01 -6.591747967745E-01 -3.470675654995E-01 3.291851394593E+00 4.260106454309E+00
 1.395632989389E+00 -3.132847488512E-01 4.190832407970E-01 5.502586129466E-02 1.940956688190E+00 1.999840013445E+00 5.919949848494E-01 2.008601670553E+00 -1.661139082374E+00 3.126143479181E-01 3.285120912474E-01 -7.160571946422E-01 7.299238001111E+00 1.653961571803E+00 -7.649799946541E+00 -4.261034456014E-01 3.972093344308E-01 -2.260885910785E-01 7.925996550257E-01 -7.942011431958E-01 -2.058545000626E-01 -1.387855454344E+00 6.842392061012E-01 -3.980441350691E-02 7.137930919398E-01 9.657866024085E-01 -4.895226697337E-01 -5.630193032590E-01 -6.992816829646E+00 -7.382802155634E+00 1.207926932645E-01 -6.919386042186E-01 5.151859389484E-01 -4.418572592766E+00 3.212496121348E+00 2.408269565992E+01
 -1.417801925263E+01 5.242446917736E+00 -8.596046715043E+00 -3.486223051355E-01 1.499969991478E+00 1.743768953742E+00 -2.447841819351E+00 2.903893553896E+00 -1.847333134147E+00 1.215665114634E+00 3.818650064019E-01 1.081402016236E+00 8.584337816637E-01 -2.914622700384E+00 6.280265058318E-01 1.554797082674E+00 2.645777459693E-02 1.084722230611E-01 -9.857279277821E-01 1.420065635888E+00 9.462048741868E-01 -1.698665084464E+00 1.397659889944E+00 1.217367253527E+00 1.917911218301E+00 -1.127201939304E+00 -8.730479029225E-01 -5.240860560698E-01 -2.990659640235E+00 2.206356470844E+00 -2.838395082481E+00 2.206660211876E-01 8.187687239333E-01 1.249882399231E+00 -7.599239661909E-01 1.370980039807E-01 3.678012505487E+01
 6.552809656926E+00 -1.531932051163E+00 3.471602292338E+00 3.319521815999E-01 1.416571931764E-01 -9.858753757932E-01 -4.438864111230E-01 -1.708597073205E+00 8.792875014700E-01 6.277051787907E-01 3.276035457200E-01 -9.825563230666E-01 -1.541159912182E+00 1.918072083416E-01 -3.006032166584E-01 -9.173183476599E-01 2.133445950055E-01 4.219248023607E-01 4.952036819241E-01 7.307262481375E-01 -6.532658472763E-01 -3.637518556092E-01 1.776644536857E-01 -4.222535975470E-01 1.468299120273E-01 -1.757555014232E-01 6.786579626429E-01 -6.489896205576E-01 8.207327896278E-01 2.347677720131E+00 4.197093455046E-01 -6.636461474925E-01 -5.028317134171E-01 9.160316700150E-01 1.063893045595E+00 4.903438471712E-01 -4.559687116483E+00 4.188851481579E+00
 -6.351622429826E+00 3.417847762144E+00 -3.319995417633E+00 7.615381060170E-01 -2.925182514921E+00 -9.978349082125E+00 1.575310258590E+00 6.815921457842E-01 2.696454386067E-01 -2.115544080990E-02 -6.440069353653E-01 1.050978976736E-01 3.199871936655E-01 -2.183481699713E+00 5.012884120061E-01 3.082429061644E-01 1.999348585976E+00 -1.365712021204E+00 -7.439211560372E-01 2.814494508559E-01 -4.130827748155E-01 2.149362412924E-01 2.118763884007E-01 -2.960385651747E-01 2.940584340449E-01 -9.735287891839E-01 2.657033757310E-01 1.515916608442E+00 4.834002158855E-01 -1.510019769123E+00 -2.198591495842E-01 1.059052690673E+00 2.284507861433E-01 4.752095936561E-01 -4.681537888619E-01 5.902214295043E-02 5.716412772993E-01 -4.161076804707E+00 1.735270648401E+01
 4.116545434699E-01 7.058586964805E-01 -1.174204122508E+00 5.493391920351E-01 3.982974919445E-01 8.838669020404E-01 -1.262462843678E+01 2.145576125364E+00 6.347716864631E+00 1.034553611809E+00 9.200295234565E-01 1.417374095922E+00 -2.520927701821E+00 -6.097974554396E-01 1.662186332810E+00 -1.870872148117E+00 1.128192483955E+00 -4.501571698572E-01 -1.594181067004E+00 6.862041073516E-01 7.319287190955E-01 8.662176326990E-01 5.545499836603E-01 5.438477700053E-01 8.816868372703E-02 -8.179288595268E-01 1.933744358358E+00 1.796146236416E+00 6.417985365260E-01 -4.140398277982E-01 -1.166161570655E+00 -6.540081402340E-01 -6.090879118802E-02 1.799613809346E+00 -7.406020573040E-01 -1.859580183820E-01 1.838110322761E-01 6.728134769713E-01 -1.146502275491E+00 1.690140813937E+01
 -4.208203825406E-01 1.754336554134E-01 1.831934495511E-01 -1.971798657386E+00 -1.901171165960E+00 6.893522871997E-01 4.500415148801E+00 -4.025790354351E+00 -1.490790574902E+00 -9.415126609405E-01 -9.574006466375E-02 7.091308386040E-01 2.738282771671E-01 1.118972296195E+00 -1.575645600931E-01 -5.575982749524E-01 5.101958674208E-01 1.377851977418E-01 -1.520993772147E+00 -5.377510429108E+00 3.060074391871E+00 -9.109836377968E-01 -5.509079809326E-01 -1.544747826817E+00 4.185229954102E-01 1.604058799248E+00 -9.811824849044E-02 2.758734166904E-01 7.626538875647E-01 -1.127979229468E+00 2.589544114841E-02 2.030891506194E+00 8.055501961732E-01 -1.540999722433E+00 1.282622752498E+00 1.758878641896E-01 1.082598938209E+00 -6.355702987039E-01 5.999147233324E-01 -5.825491950231E+00 2.315333187202E+01
 4.217033410762E-01 -3.677203366358E-01 5.035177968706E-01 3.038827884263E-01 -6.697848289897E-02 -1.199152575975E+00 3.929036829688E+00 -1.156506270917E+00 -4.843336087182E+00 4.002395053624E-01 9.300774000059E-01 8.105760918662E-01 8.724731439133E-01 -4.372877899523E-01 7.485064315583E-03 2.268708849717E+00 -7.116018334519E-01 -7.292690359972E-01 3.708522737315E+00 2.146804758628E+00 -8.936595047704E+00 -7.166992591936E-01 1.533545218560E+00 6.355458533649E-01 4.930384685459E-01 1.724825278613E+00 9.244180038527E-01 5.874626366056E-01 5.655046629165E-01 2.325489157219E+00 -1.700154781004E-01 -1.979075606061E-01 4.154012014666E-02 -1.174810862018E+00 -5.332931358963E-01 -1.209261705033E+00 -1.789047628165E+00 4.353313635336E-01 3.502794949858E-01 -1.039102594681E+01 1.697561490087E+00 1.418868925226E+01
 -4.823112751676E+00 -6.693403316824E+00 2.688692128933E+00 3.085335367089E-01 -9.443174310688E-01 -5.326844644127E-01 -2.387152748796E+00 -3.147494540598E+00 2.480849775028E+00 -4.583884431847E+00 -4.124095023873E+00 -5.335658304300E+00 3.596621146046E+00 2.749490301714E+00 -3.625649405565E-01 -3.612685878870E-01 1.813675688060E-01 -2.023489940207E+00 -5.161855206797E-01 7.047307576242E-01 1.049418362336E+00 3.687517059235E-01 -9.465967290408E-01 1.069313659440E-01 1.707325319344E+00 -3.622304405725E-01 -1.955746158696E+00 -1.190919744218E+01 8.440999423251E+00 1.203237751694E+00 1.654722212597E+00 -1.280339998508E-01 7.755778953693E-01 -4.509383397974E+00 -1.266446474809E+00 -3.378199471012E+00 -6.672850698527E-01 -2.390681456855E-01 4.813751389757E-01 -2.057083509357E+00 4.058874881190E+00 9.507908895063E-01 2.422613855798E+01
 -7.117607530671E+00 -8.851762333329E+00 1.088811275225E+00 8.763818494187E-01 1.142210849102E+00 2.242386682154E+00 9.250655841127E-02 -1.450937278316E+00 2.330953824818E+00 -4.644451675681E+00 -5.198235744191E+00 -7.229664835309E+00 -4.788352152103E-01 -1.013444306845E+00 3.275686739393E-01 1.910508240566E+00 -2.775527360650E+00 -1.546611566488E-01 -7.218520259390E-01 1.116962830353E+00 -5.551958624459E-02 1.593921817160E+00 -5.396479628588E-01 -3.384701756946E-01 -7.333918691635E-01 4.508287679164E-01 -3.551402044296E-01 5.619574434117E+00 -5.148743104617E+00 -1.241204940365E+00 2.093195101016E+00 -9.759717165816E-01 -2.410188108507E-01 -1.513027891544E-01 1.318897565526E+00 -1.324660159907E+00 1.916312961389E-01 -2.129124101861E+00 -3.290488774070E-01 8.218209295606E-01 -1.446090761185E+01 -3.816534958700E+00 1.931060079554E+00 3.625681579980E+01
 7.270247950624E-01 1.920498549425E+00 -7.109834468238E-01 -1.800060402363E+00 -2.030446673081E+00 3.662947508494E-01 5.021952836753E+00 7.926728081824E-01 2.043892315570E-01 -4.672499862259E+00 -1.012824225415E+01 -9.523277400728E+00 8.570183327678E-02 -1.874035242822E-01 6.536048750389E-01 -1.684259873383E+00 3.780702507707E-01 3.801538981645E-01 -3.964168221556E-01 5.896588364308E-02 3.231382475675E-01 2.047725705197E-01 1.133338104701E-01 -6.680168422430E-01 -1.959920297380E+00 2.714416772921E+00 -1.888338788440E+00 -9.867302763602E-01 -3.595556593197E-01 1.840636007027E+00 1.241221385685E+00 -1.060018291360E+00 -6.044638711538E-01 -3.399164171723E+00 -1.502618686592E+00 -3.127507382028E+00 1.409454941618E-01 -9.610135917715E-01 1.035984084402E+00 9.646881606921E-01 -3.714173975420E+00 -3.218854678995E-01 -2.858690163664E+00 5.755314975392E+00 4.139109309196E+01
 5.268219369891E-01 7.116019720469E-01 -3.529215722676E-02 -7.287326823081E-01 -1.148635073066E+00 1.344756295051E-01 -5.694374237260E+00 -1.403125594377E+00 -6.876910792454E+00 -2.099036604227E+00 -3.328384855989E+00 -2.154191539496E-01 -7.916610640024E-01 -6.593351804544E-01 -6.260059237628E-02 1.992553637108E+00 -1.648426837124E+00 1.287516007706E+00 -2.865461840738E-01 -1.486259918197E+00 1.549092167810E-01 5.772119728363E-01 9.317152022068E-01 -8.766026494007E-02 -9.190817334605E+00 -3.000722520997E+00 4.774990256924E+00 -9.642614312382E-01 -3.580916782592E-01 2.435070696825E+00 -8.942825228176E-02 -9.459549042345E-02 -4.158001623510E-02 3.806227529073E-01 -4.165354863790E-01 -7.693735856414E-01 1.051164655337E-02 1.628494310906E-01 -8.516513395950E-01 -5.185439374016E-01 1.448614489413E+00 -5.580858199145E-01 -4.432368520244E-01 -3.657259515277E-01 3.404284796157E+00 1.915955700994E+01
 -2.852403528132E-01 -1.819289300087E-01 5.221062383848E-01 2.400104366392E-01 2.744338958168E-01 1.619792208283E+00 -1.667284445446E+00 1.624906364778E+00 -1.735787391192E+00 -2.540300976632E+00 -5.318353159481E+00 4.796557897783E-01 2.319759352407E-01 1.110255439524E-01 2.020942609997E-02 1.203898662804E-01 -6.095990792437E-01 3.182255639727E-01 -3.554791655036E+00 -1.022012759791E+01 -1.559676667786E+00 4.052149874292E-01 -4.855383188299E-01 9.655711673773E-01 -3.854090775360E+00 -3.863448154412E+00 1.423634681192E+00 -7.892864390058E-01 -9.002802934458E-02 -1.637728739777E-01 -2.992378396298E-01 -1.190376020785E-01 1.199219263948E-01 2.371363584975E+00 -2.524028407383E+00 -4.606409601838E-01 3.058810725040E-01 -1.518009425035E+00 3.106764864601E-01 -1.606805576343E+00 1.416678157079E+00 1.113447028817E+00 -1.227798094847E+00 -4.355728486654E+00 5.090671061598E+00 5.746377445302E+00 3.710747143348E+01
 -1.438541896392E+00 -7.383825648696E-01 1.228464094178E+00 1.197949772978E+00 1.838062654277E+00 1.919421543758E+00 -6.095189290226E+00 -1.266192185557E+00 -4.226554773636E+00 7.687973626528E-01 3.128053918695E+00 -3.193154139905E+00 -4.768647547754E-01 1.342434716187E+00 -6.339917421088E-01 1.122380197540E+00 -1.243804041308E+00 -7.080044540955E-01 -2.470912780320E+00 -3.032551244637E+00 9.461014572587E-04 1.023851139018E+00 6.181132610786E-02 -1.692986759577E-01 8.297763568116E+00 1.585545083778E+00 -5.956730238014E+00 2.706612696403E+00 -7.051788667977E-01 5.490834448159E-01 8.757107367930E-02 -2.505060019194E+00 -8.710286834839E-01 1.406431428341E-01 -4.295108533878E-01 -4.502636615878E-01 1.095135941493E+00 2.108069890477E-01 -1.300063577344E+00 -1.074766567358E+00 9.738897112013E-02 2.273028227888E+00 5.947273260693E-01 7.544712149619E+00 -1.531536200758E+01 -3.200788923365E+00 -3.750916425710E+00 2.928009339220E+01
 -2.477134204958E-01 1.735909190302E-01 4.770191279824E-01 3.412906694822E-01 -4.534992749615E-01 1.685232729827E+00 2.816882561481E+00 -7.275079726228E-01 1.431622659555E+00 -2.510145206977E+00 -8.908441351785E-01 -3.785903338765E-01 -1.264677011810E+00 -8.075367253694E-02 2.451837314235E-01 -1.146531035784E+00 1.387203829298E+00 -9.866535141830E-01 -1.466905002107E+00 -6.962574488453E-01 -9.274639755159E-02 -5.418824167444E-01 -4.027746322675E-01 -6.840758450461E-01 9.632099603600E-02 -1.685929059875E-01 3.290256397331E-01 -3.961075283537E+00 5.291807956700E+00 -5.198919976258E+00 8.137372813338E-01 4.841581220465E-01 8.912221634445E-02 2.101859416690E+00 -1.078679767205E-01 -1.442990881200E+00 -1.939684143090E+01 -1.573103969617E+00 2.603899891655E+00 -2.933695022410E-01 -6.462405866825E-01 -2.443408636827E-02 6.486988508179E-01 1.185144525188E+00 9.382702444759E-01 5.593700472031E-01 9.298646808362E-01 -1.023900071738E+00 2.245266102710E+01
 4.920276697951E-01 7.393376244024E-01 -1.343432861960E+00 -7.742240833005E-01 -1.375018715143E+00 -3.892548198494E-01 9.776470423228E-01 1.920666521458E-01 -7.299645634873E-01 8.765099334466E-01 3.543891777250E-01 1.187823517709E+00 -1.505580709279E-01 1.641042728609E+00 -9.915860128254E-01 7.651600184194E-01 -5.560943059324E-01 1.449144365174E+00 6.969635511637E-01 -1.010068983554E+00 1.040579179234E+00 1.001351411450E+00 -5.850609295617E-01 -5.156045230776E-01 -9.433067742016E-01 -6.142725509636E-01 1.527103606593E-01 3.825520515259E+00 -6.419245961756E+00 5.417488695404E+00 -1.649184769303E-01 1.404530788008E+00 -1.538312009977E+00 -1.244946108974E+00 4.957758701758E-02 -8.596267323284E-02 1.170387726577E+00 -2.017431848733E-02 1.371228999587E+00 -1.905614421201E-01 -1.173466058905E-02 1.849824694444E-01 -1.953163535204E+00 7.255211744987E-01 1.069964611695E+00 1.004316783762E-01 -1.772994692905E-01 -7.030550070721E-01 -4.667070267542E+00 4.847010821367E+00
 -5.993096904264E-01 -6.425023933043E-01 1.011327948760E+00 8.616916031247E-01 2.244365609249E+00 1.786937172121E-01 1.482893205766E-01 4.584507534751E-01 4.444411070510E-01 -6.826401890373E-01 -3.941447771686E-01 -7.286923603547E-01 -5.252822084322E-01 -1.958761947351E+00 1.307743688514E+00 5.247548937313E-02 7.484103514209E-01 -1.254742566334E+00 2.617147679994E-01 3.731859153681E-01 -4.706896124381E-01 -1.217547119500E+00 6.749452060384E-01 6.951721695334E-01 -3.132102254052E-02 8.759343446861E-01 3.144612719972E-01 -4.110173172852E+00 6.152760905386E+00 -6.232014823171E+00 5.801338834763E-01 -1.746679035394E+00 1.642747558937E+00 1.653610522445E+00 -1.153211997828E-01 -1.777652238065E+00 3.744173455843E-01 -2.475005415039E-01 -1.151399304640E+00 -6.689697461639E-01 -3.558375570083E-01 -9.401740282267E-02 1.274475522776E+00 -2.463807394268E-01 -6.928243184252E-02 -2.041737904091E-01 -3.161276050464E-01 1.277884957129E-02 3.426499545837E+00 -4.809726916562E+00 5.582017140450E+00
 8.558986389099E-01 2.205973111131E-01 -1.580421412286E-01 5.827552621766E-01 1.507954829495E+00 1.461398073807E-01 5.077171952305E-01 5.965091281485E-01 -1.032584943567E+00 6.555626107912E-01 3.336671634265E-01 5.877878908045E-01 -1.344431327346E+00 -6.046906778478E-01 4.455452017998E-01 -1.197395256917E+00 6.011219857006E-01 -4.726428644254E-01 2.392285679752E-02 -1.040543210050E+00 7.280816489407E-02 4.049378887460E-01 4.019984210563E-01 6.542068847536E-01 4.903123730551E-01 -1.326610048094E+00 5.428519867420E-01 1.207918852286E+00 4.909607083293E-01 -2.032724045464E+00 -6.895050320722E-03 -1.344767008030E+00 -4.177463668953E-01 -7.451332362478E+00 4.376687978631E-02 1.840247725724E+00 -1.070480196783E+00 5.392093051706E-01 -3.566135006147E-01 -1.059289877728E+00 6.061519739986E-02 2.057919824261E+00 -1.929063178618E-01 -9.565098779901E-02 4.674359392177E+00 -8.487829455861E-02 -9.581941449529E-01 -1.422374899275E+00 -1.125164348982E+00 -9.340574246189E-02 2.181995231891E-01 9.248079082005E+00
 4.119762803709E-01 -4.066057820264E-01 4.651939615480E-01 1.420947456429E-03 -1.100942478706E+00 -1.184710690022E+00 -8.656281415354E-01 1.228688448621E-01 3.238725299954E-01 4.286578509914E-01 7.836250640590E-01 -2.825963297387E-01 -3.582595967515E-02 -4.059030951062E-01 1.050226626530E-01 6.324975895007E-01 -5.624056970343E-01 -3.873125913301E-01 3.322520197124E-01 -3.733595541019E-01 1.108651146952E+00 -1.424098313110E-01 6.981140117400E-01 5.673866288721E-01 -4.734414647220E-01 5.851402803073E-02 -3.718257111765E-01 1.901714995952E-01 3.936277474658E-01 7.319603769460E-01 2.245498126738E-01 -2.733590372689E-01 4.597754155557E-01 9.336419739055E-01 -1.712806280509E-02 -1.034821089872E+00 -1.588539353328E+00 1.555517315119E-01 1.067487038998E+00 4.121511985498E-01 -3.105602349588E+00 -1.525218000003E-01 8.822170042776E-01 2.075737509237E+00 -1.200585968085E+00 -1.007461049063E+00 3.289608037375E-01 1.184351470666E+00 4.951763507451E-01 4.657504959665E-01 -3.766799079458E-01 -6.067769839193E-01 1.456541193887E+00
 -5.424649839029E-01 9.707111968900E-02 2.441556812814E-02 6.492177976971E-01 3.313106716130E-01 6.201009585108E-01 -3.638020334623E-01 -9.973423480662E-01 1.432292112614E+00 -1.048485098809E+00 7.743941784034E-01 5.457825017184E-01 -7.540045097300E-01 1.505255436560E-01 -5.856698660418E-01 4.108209267779E-01 -3.142044562765E-01 6.574568387766E-01 2.511555981065E-01 1.329177828827E+00 -2.093652779794E+00 -1.455593513144E-01 -6.447619649331E-01 -4.212585404629E-01 -1.727736635277E-01 -1.366154683774E+00 1.004884357504E+00 -1.811343757116E-01 1.120349711681E+00 -4.441374070598E-02 1.388392720471E+00 1.262731304389E+00 5.627258600204E-01 2.261230475674E+00 -7.385426128787E-01 -9.674873600204E-01 6.489716669221E-01 -2.448901351385E-01 -5.383094859608E-01 -5.052249886796E-02 6.801683188561E-01 -2.187535125123E+00 4.935963640222E+00 -1.966434717409E+00 -1.639158389513E+01 -4.068606473419E-01 8.498671912439E-01 -2.789885750305E-01 -4.786780413780E-01 -4.552400183874E-01 -1.127959554832E-01 -6.339655410510E+00 -4.483051220377E-02 2.018473541232E+01