#BIOSYM hessian 1
@Type: Hessian Update
@Units
 distance: 	A
 energy: 	Kcal/Mol
#header
@natom 3

#label
L1      L2      L3

#element
Li Li Li

#matrix
9
 1.196931997408E+03
 1.256104827134E+02 2.225755185014E+03
 -9.199297596870E+01 1.103823875164E+01 2.232771903461E+03
 1.072832652154E+03 -1.295312439390E+02 9.482216727711E+01 1.142112908900E+03
 -1.285640788028E+02 1.551387902029E+01 -1.135005042358E+01 1.319826772971E+02 2.224996425086E+03
 1.049919610001E+02 -1.280778821478E+01 9.346125400793E+00 -1.064145038717E+02 1.288880290799E+01 2.230884544787E+03
 -2.891852883978E+01 3.920761225501E+00 -2.829191308280E+00 2.590055966797E+01 -3.418598494428E+00 1.422542872464E+00 2.243864089891E+03
 2.953596089412E+00 -4.229433132839E-01 3.118116719400E-01 -2.451433358129E+00 3.358166143015E-01 -8.101469321139E-02 -5.021627310733E-01 2.240933247420E+03
 -1.299898503147E+01 1.769549463151E+00 -1.271908141417E+00 1.159233659479E+01 -1.538752484431E+00 6.154505328491E-01 1.406648435774E+00 -2.307969787206E-01 2.241502578329E+03

