 Job started on host DESKTOP-5CQNRD0
 at Fri Aug 23 15:55:13 2019

 +-------------------------------------------------+
 |                                                 |
 |      CCC   AA    SSS  TTTTT  EEEEE  PPPP        |
 |     C     A  A  S       T    E      P   P       |
 |     C     AAAA   SS     T    EEE    PPPP        |
 |     C     A  A     S    T    E      P           |
 |      CCC  A  A  SSS     T    EEEEE  P           |
 |                                                 |
 +-------------------------------------------------+
 |                                                 |
 | Materials Studio CASTEP version 2017            |
 | Ab Initio Total Energy Program                  |
 |                                                 |
 | Authors:                                        |
 | M. Segall, M. Probert, C. Pickard, P. Hasnip,   |
 | S. Clark, K. Refson, J. R. Yates, M. Payne      |
 |                                                 |
 | Contributors:                                   |
 | P. Lindan, P. Haynes, J. White, V. Milman,      |
 | N. Govind, M. Gibson, P. Tulip, V. Cocula,      |
 | B. Montanari, D. Quigley, M. Glover,            |
 | L. Bernasconi, A. Perlov, M. Plummer,           |
 | E. McNellis, J. Meyer, J. Gale, D. Jochym       |
 | J. Aarons, B. Walker, R. Gillen, D. Jones       |
 | T. Green, I. J. Bush, C. J. Armstrong,          |
 | E. J. Higgins, E. L. Brown, M. S. McFly         |
 |                                                 |
 | Copyright (c) 2000 - 2016                       |
 |                                                 |
 | Please cite                                     |
 |                                                 |
 |     "First principles methods using CASTEP"     |
 |                                                 |
 |         Zeitschrift fuer Kristallographie       |
 |           220(5-6) pp. 567-570 (2005)           |
 |                                                 |
 | S. J. Clark, M. D. Segall, C. J. Pickard,       |
 | P. J. Hasnip, M. J. Probert, K. Refson,         |
 | M. C. Payne                                     |
 |                                                 |
 |       in all publications arising from          |
 |              your use of CASTEP                 |
 |                                                 |
 +-------------------------------------------------+
 
 
 This version was compiled for x86_64-windows-msvc2008 on May 05 2016
 Intel(R) Math Kernel Library Version 11.1.2 
 Fundamental constants values: CODATA 2010
 
License checkout of MS_castep successful
 
 
 Atomic calculation performed for C: 1s2 2s2 2p2
 
 Converged in 54 iterations to an ae energy of -1027.632 eV
 
 Identity difference: 2.37E-04
 
   ============================================================                
   | Pseudopotential Report - Date of generation 23-08-2019   |                
   ------------------------------------------------------------                
   | Element: C Ionic charge:  4.00 Level of theory: PBE      |                
   | Atomic Solver: Koelling-Harmon                           |                
   |                                                          |                
   |               Reference Electronic Structure             |                
   |         Orbital         Occupation         Energy        |                
   |            2s              2.000           -0.505        |                
   |            2p              2.000           -0.194        |                
   |                                                          |                
   |                 Pseudopotential Definition               |                
   |        Beta     l      e      Rc     scheme   norm       |                
   |          1      0   -0.505   1.395     qc      0         |                
   |          2      0    0.250   1.395     qc      0         |                
   |          3      1   -0.194   1.395     qc      0         |                
   |          4      1    0.250   1.395     qc      0         |                
   |         loc     2    0.000   1.395     pn      0         |                
   |                                                          |                
   | Augmentation charge Rinner = 0.983                       |                
   | Partial core correction Rc = 0.983                       |                
   ------------------------------------------------------------                
   | "2|1.4|11|12|14.7|20UU:21UU(qc=7)[]"                     |                
   ------------------------------------------------------------                
   |      Author: Chris J. Pickard, Cambridge University      |                
   ============================================================                
 
 Doing a self consistent calculation for the test configuration
 
 Atomic calculation performed for C: 1s2 2s2 2p2
 
 Converged in 54 iterations to an ae energy of -1027.632 eV
 
 ---------------------------------------
 AE eigenvalue nl 10 =      -10.04653081
 AE eigenvalue nl 20 =       -0.50533429
 AE eigenvalue nl 21 =       -0.19423807
 ---------------------------------------
 PS eigenvalue nl 20 =       -0.50531853
 PS eigenvalue nl 21 =       -0.19422214
 ---------------------------------------
 Maximum eigenvalue error:   1.59E-05
 
 Derived cutoff energies: C=   6 M=  10 F=  12 E=  16
 
 
 ***************************************
 
 Atomic calculation performed for O: 1s2 2s2 2p4
 
 Converged in 61 iterations to an ae energy of -2040.902 eV
 
 Identity difference: 4.10E-04
 
   ============================================================                
   | Pseudopotential Report - Date of generation 23-08-2019   |                
   ------------------------------------------------------------                
   | Element: O Ionic charge:  6.00 Level of theory: PBE      |                
   | Atomic Solver: Koelling-Harmon                           |                
   |                                                          |                
   |               Reference Electronic Structure             |                
   |         Orbital         Occupation         Energy        |                
   |            2s              2.000           -0.881        |                
   |            2p              4.000           -0.332        |                
   |                                                          |                
   |                 Pseudopotential Definition               |                
   |        Beta     l      e      Rc     scheme   norm       |                
   |          1      0   -0.881   1.100     qc      0         |                
   |          2      0    0.250   1.100     qc      0         |                
   |          3      1   -0.332   1.100     qc      0         |                
   |          4      1    0.250   1.100     qc      0         |                
   |         loc     2    0.000   1.100     pn      0         |                
   |                                                          |                
   | Augmentation charge Rinner = 0.769                       |                
   | Partial core correction Rc = 0.769                       |                
   ------------------------------------------------------------                
   | "2|1.1|14|18|21|20UU:21UU(qc=7)[]"                       |                
   ------------------------------------------------------------                
   |      Author: Chris J. Pickard, Cambridge University      |                
   ============================================================                
 
 Doing a self consistent calculation for the test configuration
 
 Atomic calculation performed for O: 1s2 2s2 2p4
 
 Converged in 61 iterations to an ae energy of -2040.902 eV
 
 ---------------------------------------
 AE eigenvalue nl 10 =      -18.91475256
 AE eigenvalue nl 20 =       -0.88057101
 AE eigenvalue nl 21 =       -0.33186952
 ---------------------------------------
 PS eigenvalue nl 20 =       -0.88059206
 PS eigenvalue nl 21 =       -0.33182157
 ---------------------------------------
 Maximum eigenvalue error:   4.80E-05
 
 Derived cutoff energies: C=  14 M=  17 F=  20 E=  22
 
 
 ***************************************
 
 Atomic calculation performed for Pd:
 1s2 2s2 2p6 3s2 3p6 3d10 4s2 4p6 4d10 5s0.5
 
 Converged in 117 iterations to an ae energy of -137306.547 eV
 
 Identity difference: 4.15E-03
 
 Warning: ion_atom_descreen_psp: negative charge density encountered
   ============================================================                
   | Pseudopotential Report - Date of generation 23-08-2019   |                
   ------------------------------------------------------------                
   | Element: Pd Ionic charge: 18.00 Level of theory: PBE     |                
   | Atomic Solver: Koelling-Harmon                           |                
   |                                                          |                
   |               Reference Electronic Structure             |                
   |         Orbital         Occupation         Energy        |                
   |            4s              2.000           -3.024        |                
   |            4p              6.000           -1.769        |                
   |            4d             10.000           -0.035        |                
   |            5s              0.500           -0.024        |                
   |                                                          |                
   |                 Pseudopotential Definition               |                
   |        Beta     l      e      Rc     scheme   norm       |                
   |          1      0   -3.024   1.602     qc      0         |                
   |          2      0   -0.024   1.602     qc      0         |                
   |          3      0    0.250   1.602     qc      0         |                
   |          4      1   -1.769   1.602     qc      0         |                
   |          5      1    0.250   1.602     qc      0         |                
   |          6      2   -0.035   1.602     qc      0         |                
   |          7      2    0.250   1.602     qc      0         |                
   |         loc     3    0.000   1.602     pn      0         |                
   |                                                          |                
   | Augmentation charge Rinner = 1.120                       |                
   | Partial core correction Rc = 1.120                       |                
   ------------------------------------------------------------                
   | "3|1.6|15|18.8|20.6|40U:50UU:41UU:42UU{5s0.5}(qc=7)[]"   |                
   ------------------------------------------------------------                
   |      Author: Chris J. Pickard, Cambridge University      |                
   ============================================================                
 
 Doing a self consistent calculation for the test configuration
 
 Atomic calculation performed for Pd:
 1s2 2s2 2p6 3s2 3p6 3d10 4s2 4p6 4d10 5s0.5
 
 Converged in 117 iterations to an ae energy of -137306.547 eV
 
 ---------------------------------------
 AE eigenvalue nl 10 =     -887.98549682
 AE eigenvalue nl 20 =     -129.55227025
 AE eigenvalue nl 21 =     -116.13666558
 AE eigenvalue nl 30 =      -23.26518136
 AE eigenvalue nl 31 =      -18.85550066
 AE eigenvalue nl 32 =      -11.85263732
 AE eigenvalue nl 40 =       -3.02406957
 AE eigenvalue nl 41 =       -1.76878223
 AE eigenvalue nl 42 =       -0.03486337
 AE eigenvalue nl 50 =       -0.02425157
 ---------------------------------------
 PS eigenvalue nl 40 =       -3.02358228
 PS eigenvalue nl 41 =       -1.76830313
 PS eigenvalue nl 42 =       -0.03447713
 PS eigenvalue nl 50 =       -0.02390852
 ---------------------------------------
 Maximum eigenvalue error:   4.87E-04
 
 Derived cutoff energies: C=  14 M=  17 F=  20 E=  22
 
 
 ***************************************
 
 Pseudo atomic calculation performed for C 2s2 2p2
 
 Converged in 17 iterations to a total energy of -148.1084 eV
 
 
 Pseudo atomic calculation performed for O 2s2 2p4
 
 Converged in 21 iterations to a total energy of -425.8464 eV
 
 
 Pseudo atomic calculation performed for Pd 4s2 4p6 4d10 5s0.5
 
 Converged in 51 iterations to a total energy of -3466.6328 eV
 
 Calculation parallelised over 2 processes.
 Data is distributed by k-point(2-way)

 ************************************ Title ************************************
 CASTEP calculation from Materials Studio

 ***************************** General Parameters ******************************
  
 output verbosity                               : normal  (1)
 write checkpoint data to                       : Pd__1_1_0_.check
 type of calculation                            : geometry optimization
 stress calculation                             : off
 density difference calculation                 : off
 electron localisation func (ELF) calculation   : off
 Hirshfeld analysis                             : off
 unlimited duration calculation
 timing information                             : on
 memory usage estimate                          : on
 write final potential to formatted file        : off
 write final density to formatted file          : off
 write BibTeX reference list                    : on
 write OTFG pseudopotential files               : on
 checkpoint writing                             : both castep_bin and check files
  
 output         length unit                     : A
 output           mass unit                     : amu
 output           time unit                     : ps
 output         charge unit                     : e
 output           spin unit                     : hbar/2
 output         energy unit                     : eV
 output          force unit                     : eV/A
 output       velocity unit                     : A/ps
 output       pressure unit                     : GPa
 output     inv_length unit                     : 1/A
 output      frequency unit                     : cm-1
 output force constant unit                     : eV/A**2
 output         volume unit                     : A**3
 output   IR intensity unit                     : (D/A)**2/amu
 output         dipole unit                     : D
 output         efield unit                     : eV/A/e
 output        entropy unit                     : J/mol/K
  
 wavefunctions paging                           : none
 random number generator seed                   : randomised (155536849)
 data distribution                              : optimal for this architecture
 optimization strategy                          : balance speed and memory

 *********************** Exchange-Correlation Parameters ***********************
  
 using functional                               : Perdew Burke Ernzerhof
 relativistic treatment                         : Koelling-Harmon
 DFT+D: Semi-empirical dispersion correction    : off

 ************************* Pseudopotential Parameters **************************
  
 pseudopotential representation                 : reciprocal space
 <beta|phi> representation                      : reciprocal space
 spin-orbit coupling                            : off

 **************************** Basis Set Parameters *****************************
  
 plane wave basis set cut-off                   :   300.0000   eV
 size of standard grid                          :     1.5000
 size of   fine   gmax                          :    13.3104   1/A
 largest prime factor in FFT                    :          5
 finite basis set correction                    : none

 **************************** Electronic Parameters ****************************
  
 number of  electrons                           :  64.00    
 net charge of system                           :  0.000    
 treating system as non-spin-polarized
 number of bands                                :         39

 ********************* Electronic Minimization Parameters **********************
  
 Method: Treating system as metallic with density mixing treatment of electrons,
         and number of  SD  steps               :          1
         and number of  CG  steps               :          4
  
 total energy / atom convergence tol.           : 0.1000E-04   eV
 eigen-energy convergence tolerance             : 0.1000E-05   eV
 max force / atom convergence tol.              : ignored
 convergence tolerance window                   :          3   cycles
 max. number of SCF cycles                      :        100
 number of fixed-spin iterations                :         10
 smearing scheme                                : Gaussian
 smearing width                                 : 0.1000       eV
 Fermi energy convergence tolerance             : 0.2721E-13   eV
 periodic dipole correction                     : NONE

 ************************** Density Mixing Parameters **************************
  
 density-mixing scheme                          : Pulay
 max. length of mixing history                  :         20
 charge density mixing amplitude                : 0.5000    
 cut-off energy for mixing                      :  300.0       eV
 charge density mixing g-vector                 :  1.500       1/A

 ********************** Geometry Optimization Parameters ***********************
  
 optimization method                            : BFGS
 variable cell method                           : fixed basis quality
 max. number of steps                           :        100
 estimated bulk modulus                         :  500.0       GPa
 estimated <frequency>                          :  1668.       cm-1
 geom line minimiser                            : on
 with line minimiser tolerance                  :     0.4000
 total energy convergence tolerance             : 0.5000E-04   eV/atom
        max ionic |force| tolerance             : 0.1000       eV/A
 max ionic |displacement| tolerance             : 0.5000E-02   A
   max |stress component| tolerance             : 0.2000       GPa
 convergence tolerance window                   :          2   steps
 backup results every                           :          5   steps

 *******************************************************************************
  
 
                           -------------------------------
                                      Unit Cell
                           -------------------------------
        Real Lattice(A)                      Reciprocal Lattice(1/A)
   3.9629381   0.0000000   0.0000000        1.5854866   0.0000000   0.0000000
   0.0000000   2.8022204   0.0000000        0.0000000   2.2422167   0.0000000
   0.0000000   0.0000000  10.8022204        0.0000000   0.0000000   0.5816568
 
                       Lattice parameters(A)       Cell Angles
                    a =    3.962938          alpha =   90.000000
                    b =    2.802220          beta  =   90.000000
                    c =   10.802220          gamma =   90.000000
 
                       Current cell volume =  119.958936       A**3
 
                           -------------------------------
                                     Cell Contents
                           -------------------------------
                         Total number of ions in cell =    5
                      Total number of species in cell =    3
                        Max number of any one species =    3
 
            xxxxxxxxxxxxxxxxxxxxxxxxxxxxxxxxxxxxxxxxxxxxxxxxxxxxxxxxxxxx
            x  Element    Atom        Fractional coordinates of atoms  x
            x            Number           u          v          w      x
            x----------------------------------------------------------x
            x  C            1        -0.500000   0.000000   0.382000   x 
            x  O            1        -0.500000   0.000000   0.489000   x 
            x  Pd           1         0.500000   0.500000   0.000000   x 
            x  Pd           2        -0.500000  -0.500000   0.250875   x 
            x  Pd           3         0.000000   0.000000   0.129706   x 
            xxxxxxxxxxxxxxxxxxxxxxxxxxxxxxxxxxxxxxxxxxxxxxxxxxxxxxxxxxxx
 
 
                         No user defined ionic velocities
 
                           -------------------------------
                                   Details of Species
                           -------------------------------
 
                               Mass of species in AMU
                                    C   12.0109997
                                    O   15.9989996
                                    Pd  106.4000015
 
                          Electric Quadrupole Moment (Barn)
                                    C    0.0332700 Isotope 11
                                    O   -0.0255800 Isotope 17
                                    Pd    0.6600000 Isotope105
 
                          Files used for pseudopotentials:
                                    C 2|1.4|11|12|14.7|20UU:21UU(qc=7)[]
                                    O 2|1.1|14|18|21|20UU:21UU(qc=7)[]
                                    Pd 3|1.6|15|18.8|20.6|40U:50UU:41UU:42UU{5s0.5}(qc=7)[]
 
                           -------------------------------
                              k-Points For BZ Sampling
                           -------------------------------
                       MP grid size for SCF calculation is  3  4  1
                            with an offset of   0.000  0.000  0.000
                       Number of kpoints used =             4
 
                           -------------------------------
                               Symmetry and Constraints
                           -------------------------------
 
                      Maximum deviation from symmetry = 0.879949E-15     ANG
 
                      Number of symmetry operations   =           4
                      Number of ionic constraints     =           6
                      Point group of crystal =     6: C2v, mm2, 2 mm
                      Space group of crystal =    25: Pmm2, P 2 -2
 
             Set iprint > 1 for details on symmetry rotations/translations
 
                         Centre of mass is NOT constrained
             Set iprint > 1 for details of linear ionic constraints
 
                         Number of cell constraints= 6
                         Cell constraints are:  0 0 0 0 0 0
 
                         External pressure/stress (GPa)
                          0.00000   0.00000   0.00000
                                    0.00000   0.00000
                                              0.00000
  
+---------------- MEMORY AND SCRATCH DISK ESTIMATES PER PROCESS --------------+
|                                                     Memory          Disk    |
| Baseline code, static data and system overhead        0.0 MB         0.0 MB |
| BLAS internal memory storage                          0.0 MB         0.0 MB |
| Model and support data                               55.5 MB        21.2 MB |
| Electronic energy minimisation requirements           6.4 MB         0.0 MB |
| Force calculation requirements                        1.3 MB         0.0 MB |
|                                               ----------------------------- |
| Approx. total storage required per process           61.9 MB        21.2 MB |
|                                                                             |
| Requirements will fluctuate during execution and may exceed these estimates |
+-----------------------------------------------------------------------------+
------------------------------------------------------------------------ <-- SCF
SCF loop      Energy           Fermi           Energy gain       Timer   <-- SCF
                               energy          per atom          (sec)   <-- SCF
------------------------------------------------------------------------ <-- SCF
Initial  -1.19375676E+004  0.00000000E+000                        24.53  <-- SCF
      1  -1.08175871E+004  1.34437168E+001  -2.23996082E+002      24.91  <-- SCF
      2  -1.10421309E+004  1.01224377E+001   4.49087573E+001      25.30  <-- SCF
      3  -1.10554970E+004  9.76649358E+000   2.67321711E+000      25.67  <-- SCF
      4  -1.10413121E+004  4.13368143E+000  -2.83698225E+000      26.16  <-- SCF
      5  -1.10473178E+004  4.02519300E+000   1.20113163E+000      26.58  <-- SCF
      6  -1.10063712E+004  3.15379017E+000  -8.18931959E+000      26.97  <-- SCF
      7  -1.10064630E+004  3.15261643E+000   1.83729413E-002      27.38  <-- SCF
      8  -1.10016511E+004  4.38807417E+000  -9.62386715E-001      27.81  <-- SCF
      9  -1.10007431E+004  3.86971318E+000  -1.81609323E-001      28.16  <-- SCF
     10  -1.10008613E+004  3.93700879E+000   2.36513741E-002      28.45  <-- SCF
     11  -1.10006305E+004  3.68497508E+000  -4.61642918E-002      28.80  <-- SCF
     12  -1.10006607E+004  3.74870888E+000   6.05180503E-003      29.14  <-- SCF
     13  -1.10006117E+004  3.64510883E+000  -9.80612915E-003      29.41  <-- SCF
     14  -1.10005951E+004  3.47714306E+000  -3.32756986E-003      29.72  <-- SCF
     15  -1.10005917E+004  3.37190004E+000  -6.69440854E-004      30.03  <-- SCF
     16  -1.10005969E+004  3.29354301E+000   1.03464601E-003      30.30  <-- SCF
     17  -1.10005996E+004  3.26054959E+000   5.39533649E-004      30.58  <-- SCF
     18  -1.10006001E+004  3.24941026E+000   1.08571567E-004      30.84  <-- SCF
     19  -1.10006001E+004  3.24426646E+000  -9.68274756E-006      31.11  <-- SCF
     20  -1.10006002E+004  3.24319795E+000   1.18658080E-005      31.33  <-- SCF
     21  -1.10006002E+004  3.24375621E+000   1.87767585E-006      31.50  <-- SCF
     22  -1.10006002E+004  3.24440701E+000  -1.30180631E-006      31.67  <-- SCF
------------------------------------------------------------------------ <-- SCF
 
Final energy, E             =  -11000.54188187     eV
Final free energy (E-TS)    =  -11000.60015641     eV
(energies not corrected for finite basis set)
 
NB est. 0K energy (E-0.5TS)      =  -11000.57101914     eV
 

Writing analysis data to Pd__1_1_0_.castep_bin

Writing model to Pd__1_1_0_.check

WARNING - user ionic constraints and symmetry specified
        - symmetry has precedence over constraints
        - may lead to a conflict?
 
HINT    - if convergence fails try switching symmetry OFF
 
+---------------- MEMORY AND SCRATCH DISK ESTIMATES PER PROCESS --------------+
|                                                     Memory          Disk    |
| Model and support data                               66.2 MB        21.2 MB |
| Electronic energy minimisation requirements           6.4 MB         0.0 MB |
| Geometry minimisation requirements                    8.3 MB         0.0 MB |
|                                               ----------------------------- |
| Approx. total storage required per process           81.0 MB        21.2 MB |
|                                                                             |
| Requirements will fluctuate during execution and may exceed these estimates |
+-----------------------------------------------------------------------------+
 
 
 *********************************** Forces ***********************************
 *                                                                            *
 *                        Cartesian components (eV/A)                         *
 * -------------------------------------------------------------------------- *
 *                   x                    y                    z              *
 *                                                                            *
 * C         1      0.00000              0.00000             -0.71463         *
 * O         1      0.00000              0.00000              4.65549         *
 * Pd        1      0.00000(cons'd)      0.00000(cons'd)      2.83310(cons'd) *
 * Pd        2      0.00000              0.00000             -0.51205         *
 * Pd        3      0.00000(cons'd)      0.00000(cons'd)     -6.26191(cons'd) *
 *                                                                            *
 ******************************************************************************
 BFGS: finished iteration     0 with enthalpy= -1.10006002E+004 eV
  
 +-----------+-----------------+-----------------+------------+-----+ <-- BFGS
 | Parameter |      value      |    tolerance    |    units   | OK? | <-- BFGS
 +-----------+-----------------+-----------------+------------+-----+ <-- BFGS
 |  dE/ion   |   0.000000E+000 |   5.000000E-005 |         eV | No  | <-- BFGS
 |  |F|max   |   4.655487E+000 |   1.000000E-001 |       eV/A | No  | <-- BFGS
 |  |dR|max  |   0.000000E+000 |   5.000000E-003 |          A | No  | <-- BFGS
 +-----------+-----------------+-----------------+------------+-----+ <-- BFGS
  

================================================================================
 Starting BFGS iteration          1 ...
================================================================================
  
 +------------+-------------+-------------+-----------------+ <-- min BFGS
 |    Step    |   lambda    |   F.delta'  |    enthalpy     | <-- min BFGS
 +------------+-------------+-------------+-----------------+ <-- min BFGS
 |  previous  |    0.000000 |    1.880772 |   -11000.600156 | <-- min BFGS
 +------------+-------------+-------------+-----------------+ <-- min BFGS
  

--------------------------------------------------------------------------------
 BFGS: starting iteration         1 with trial guess (lambda=  1.000000)
--------------------------------------------------------------------------------
 
                           -------------------------------
                                     Cell Contents
                           -------------------------------
 
            xxxxxxxxxxxxxxxxxxxxxxxxxxxxxxxxxxxxxxxxxxxxxxxxxxxxxxxxxxxx
            x  Element    Atom        Fractional coordinates of atoms  x
            x            Number           u          v          w      x
            x----------------------------------------------------------x
            x  C            1        -0.500000   0.000000   0.381907   x
            x  O            1        -0.500000   0.000000   0.489607   x
            x  Pd           1         0.500000   0.500000   0.000000   x
            x  Pd           2        -0.500000  -0.500000   0.250808   x
            x  Pd           3         0.000000   0.000000   0.129706   x
            xxxxxxxxxxxxxxxxxxxxxxxxxxxxxxxxxxxxxxxxxxxxxxxxxxxxxxxxxxxx
 
 
------------------------------------------------------------------------ <-- SCF
SCF loop      Energy           Fermi           Energy gain       Timer   <-- SCF
                               energy          per atom          (sec)   <-- SCF
------------------------------------------------------------------------ <-- SCF
Initial  -1.10002742E+004  0.00000000E+000                        31.95  <-- SCF
      1  -1.10006204E+004  3.24575542E+000   6.92367457E-002      32.19  <-- SCF
      2  -1.10006205E+004  3.24575499E+000   2.68312281E-005      32.45  <-- SCF
      3  -1.10006199E+004  3.23980006E+000  -1.15825338E-004      32.69  <-- SCF
      4  -1.10006198E+004  3.23292002E+000  -1.94826000E-005      33.02  <-- SCF
      5  -1.10006198E+004  3.23370361E+000  -1.13473122E-005      33.22  <-- SCF
      6  -1.10006198E+004  3.23288867E+000  -1.91477154E-006      33.39  <-- SCF
      7  -1.10006198E+004  3.23129447E+000  -3.86611874E-006      33.55  <-- SCF
------------------------------------------------------------------------ <-- SCF
 
Final energy, E             =  -11000.56156571     eV
Final free energy (E-TS)    =  -11000.61975539     eV
(energies not corrected for finite basis set)
 
NB est. 0K energy (E-0.5TS)      =  -11000.59066055     eV
 
 
 *********************************** Forces ***********************************
 *                                                                            *
 *                        Cartesian components (eV/A)                         *
 * -------------------------------------------------------------------------- *
 *                   x                    y                    z              *
 *                                                                            *
 * C         1      0.00000              0.00000             -0.08164         *
 * O         1      0.00000              0.00000              3.99490         *
 * Pd        1      0.00000(cons'd)      0.00000(cons'd)      2.79923(cons'd) *
 * Pd        2      0.00000              0.00000             -0.43595         *
 * Pd        3      0.00000(cons'd)      0.00000(cons'd)     -6.27655(cons'd) *
 *                                                                            *
 ******************************************************************************
  
 +------------+-------------+-------------+-----------------+ <-- min BFGS
 |    Step    |   lambda    |   F.delta'  |    enthalpy     | <-- min BFGS
 +------------+-------------+-------------+-----------------+ <-- min BFGS
 |  previous  |    0.000000 |    1.880772 |   -11000.600156 | <-- min BFGS
 | trial step |    1.000000 |    1.581924 |   -11000.619755 | <-- min BFGS
 +------------+-------------+-------------+-----------------+ <-- min BFGS
  

--------------------------------------------------------------------------------
 BFGS: improving iteration         1 with line minimization (lambda=  6.293415)
--------------------------------------------------------------------------------
 
                           -------------------------------
                                     Cell Contents
                           -------------------------------
 
            xxxxxxxxxxxxxxxxxxxxxxxxxxxxxxxxxxxxxxxxxxxxxxxxxxxxxxxxxxxx
            x  Element    Atom        Fractional coordinates of atoms  x
            x            Number           u          v          w      x
            x----------------------------------------------------------x
            x  C            1        -0.500000   0.000000   0.381414   x
            x  O            1        -0.500000   0.000000   0.492818   x
            x  Pd           1         0.500000   0.500000   0.000000   x
            x  Pd           2        -0.500000  -0.500000   0.250455   x
            x  Pd           3         0.000000   0.000000   0.129706   x
            xxxxxxxxxxxxxxxxxxxxxxxxxxxxxxxxxxxxxxxxxxxxxxxxxxxxxxxxxxxx
 
 
------------------------------------------------------------------------ <-- SCF
SCF loop      Energy           Fermi           Energy gain       Timer   <-- SCF
                               energy          per atom          (sec)   <-- SCF
------------------------------------------------------------------------ <-- SCF
Initial  -1.09993445E+004  0.00000000E+000                        33.75  <-- SCF
      1  -1.10006555E+004  3.23572041E+000   2.62205768E-001      33.98  <-- SCF
      2  -1.10006625E+004  3.23577123E+000   1.38906276E-003      34.34  <-- SCF
      3  -1.10006505E+004  3.20244713E+000  -2.40169866E-003      34.64  <-- SCF
      4  -1.10006493E+004  3.17407140E+000  -2.23910933E-004      34.94  <-- SCF
      5  -1.10006480E+004  3.17379305E+000  -2.65869973E-004      35.23  <-- SCF
      6  -1.10006478E+004  3.16066178E+000  -3.85490063E-005      35.52  <-- SCF
      7  -1.10006477E+004  3.15436332E+000  -2.03023968E-005      35.77  <-- SCF
      8  -1.10006477E+004  3.15095510E+000   2.13146140E-006      35.97  <-- SCF
      9  -1.10006477E+004  3.14508873E+000  -2.38068362E-006      36.20  <-- SCF
------------------------------------------------------------------------ <-- SCF
 
Final energy, E             =  -11000.59012535     eV
Final free energy (E-TS)    =  -11000.64770601     eV
(energies not corrected for finite basis set)
 
NB est. 0K energy (E-0.5TS)      =  -11000.61891568     eV
 
 
 *********************************** Forces ***********************************
 *                                                                            *
 *                        Cartesian components (eV/A)                         *
 * -------------------------------------------------------------------------- *
 *                   x                    y                    z              *
 *                                                                            *
 * C         1      0.00000              0.00000              2.85324         *
 * O         1      0.00000              0.00000              0.96568         *
 * Pd        1      0.00000(cons'd)      0.00000(cons'd)      2.55938(cons'd) *
 * Pd        2      0.00000              0.00000              0.00275         *
 * Pd        3      0.00000(cons'd)      0.00000(cons'd)     -6.38105(cons'd) *
 *                                                                            *
 ******************************************************************************
  
 +------------+-------------+-------------+-----------------+ <-- min BFGS
 |    Step    |   lambda    |   F.delta'  |    enthalpy     | <-- min BFGS
 +------------+-------------+-------------+-----------------+ <-- min BFGS
 |  previous  |    0.000000 |    1.880772 |   -11000.600156 | <-- min BFGS
 | trial step |    1.000000 |    1.581924 |   -11000.619755 | <-- min BFGS
 |  line step |    6.293415 |    0.205726 |   -11000.647706 | <-- min BFGS
 +------------+-------------+-------------+-----------------+ <-- min BFGS
  
 BFGS: finished iteration     1 with enthalpy= -1.10006477E+004 eV
  
 +-----------+-----------------+-----------------+------------+-----+ <-- BFGS
 | Parameter |      value      |    tolerance    |    units   | OK? | <-- BFGS
 +-----------+-----------------+-----------------+------------+-----+ <-- BFGS
 |  dE/ion   |   9.509919E-003 |   5.000000E-005 |         eV | No  | <-- BFGS
 |  |F|max   |   2.853242E+000 |   1.000000E-001 |       eV/A | No  | <-- BFGS
 |  |dR|max  |   4.124685E-002 |   5.000000E-003 |          A | No  | <-- BFGS
 +-----------+-----------------+-----------------+------------+-----+ <-- BFGS
  

================================================================================
 Starting BFGS iteration          2 ...
================================================================================
  
 +------------+-------------+-------------+-----------------+ <-- min BFGS
 |    Step    |   lambda    |   F.delta'  |    enthalpy     | <-- min BFGS
 +------------+-------------+-------------+-----------------+ <-- min BFGS
 |  previous  |    0.000000 |    0.751381 |   -11000.647706 | <-- min BFGS
 +------------+-------------+-------------+-----------------+ <-- min BFGS
  

--------------------------------------------------------------------------------
 BFGS: starting iteration         2 with trial guess (lambda=  1.000000)
--------------------------------------------------------------------------------
 
                           -------------------------------
                                     Cell Contents
                           -------------------------------
 
            xxxxxxxxxxxxxxxxxxxxxxxxxxxxxxxxxxxxxxxxxxxxxxxxxxxxxxxxxxxx
            x  Element    Atom        Fractional coordinates of atoms  x
            x            Number           u          v          w      x
            x----------------------------------------------------------x
            x  C            1        -0.500000   0.000000   0.381725   x
            x  O            1        -0.500000   0.000000   0.493654   x
            x  Pd           1         0.500000   0.500000   0.000000   x
            x  Pd           2        -0.500000  -0.500000   0.250379   x
            x  Pd           3         0.000000   0.000000   0.129706   x
            xxxxxxxxxxxxxxxxxxxxxxxxxxxxxxxxxxxxxxxxxxxxxxxxxxxxxxxxxxxx
 
 
------------------------------------------------------------------------ <-- SCF
SCF loop      Energy           Fermi           Energy gain       Timer   <-- SCF
                               energy          per atom          (sec)   <-- SCF
------------------------------------------------------------------------ <-- SCF
Initial  -1.10003431E+004  0.00000000E+000                        36.44  <-- SCF
      1  -1.10006438E+004  3.14366688E+000   6.01439035E-002      36.67  <-- SCF
      2  -1.10006441E+004  3.14366506E+000   5.79093481E-005      36.98  <-- SCF
      3  -1.10006437E+004  3.14096628E+000  -8.39443751E-005      37.25  <-- SCF
      4  -1.10006438E+004  3.13577233E+000   2.10977107E-005      37.48  <-- SCF
      5  -1.10006438E+004  3.13557678E+000   3.64199935E-007      37.70  <-- SCF
      6  -1.10006438E+004  3.13541609E+000   2.24970191E-006      37.91  <-- SCF
------------------------------------------------------------------------ <-- SCF
 
Final energy, E             =  -11000.58624987     eV
Final free energy (E-TS)    =  -11000.64381962     eV
(energies not corrected for finite basis set)
 
NB est. 0K energy (E-0.5TS)      =  -11000.61503474     eV
 
 
 *********************************** Forces ***********************************
 *                                                                            *
 *                        Cartesian components (eV/A)                         *
 * -------------------------------------------------------------------------- *
 *                   x                    y                    z              *
 *                                                                            *
 * C         1      0.00000              0.00000              3.17566         *
 * O         1      0.00000              0.00000              0.59361         *
 * Pd        1      0.00000(cons'd)      0.00000(cons'd)      2.53010(cons'd) *
 * Pd        2      0.00000              0.00000              0.09780         *
 * Pd        3      0.00000(cons'd)      0.00000(cons'd)     -6.39716(cons'd) *
 *                                                                            *
 ******************************************************************************
  
 +------------+-------------+-------------+-----------------+ <-- min BFGS
 |    Step    |   lambda    |   F.delta'  |    enthalpy     | <-- min BFGS
 +------------+-------------+-------------+-----------------+ <-- min BFGS
 |  previous  |    0.000000 |    0.751381 |   -11000.647706 | <-- min BFGS
 | trial step |    1.000000 |    0.654706 |   -11000.643820 | <-- min BFGS
 +------------+-------------+-------------+-----------------+ <-- min BFGS
  
 BFGS: Warning - trial step suggests complex energy landscape
                 in which simple line minimization will fail.
  
               - This is usually an indication that the forces/streses
                 are not accurate enough. Consider making the following changes:
  
                 1) Increase cutoff_energy or basis_precision
                 2) Reduce elec_energy_tol and/or elec_force_tol
                 3) Increase grid_scale
                 4) Increase fine_grid_scale
  
               - Proceeding with a bisection search to find root instead.
  

--------------------------------------------------------------------------------
 BFGS: improving iteration         2 with bisection search (lambda=  0.500000)
--------------------------------------------------------------------------------
 
                           -------------------------------
                                     Cell Contents
                           -------------------------------
 
            xxxxxxxxxxxxxxxxxxxxxxxxxxxxxxxxxxxxxxxxxxxxxxxxxxxxxxxxxxxx
            x  Element    Atom        Fractional coordinates of atoms  x
            x            Number           u          v          w      x
            x----------------------------------------------------------x
            x  C            1        -0.500000   0.000000   0.381569   x
            x  O            1        -0.500000   0.000000   0.493236   x
            x  Pd           1         0.500000   0.500000   0.000000   x
            x  Pd           2        -0.500000  -0.500000   0.250417   x
            x  Pd           3         0.000000   0.000000   0.129706   x
            xxxxxxxxxxxxxxxxxxxxxxxxxxxxxxxxxxxxxxxxxxxxxxxxxxxxxxxxxxxx
 
 
------------------------------------------------------------------------ <-- SCF
SCF loop      Energy           Fermi           Energy gain       Timer   <-- SCF
                               energy          per atom          (sec)   <-- SCF
------------------------------------------------------------------------ <-- SCF
Initial  -1.10007398E+004  0.00000000E+000                        38.14  <-- SCF
      1  -1.10006460E+004  3.13350283E+000  -1.87519839E-002      38.39  <-- SCF
      2  -1.10006461E+004  3.13350235E+000   1.35507197E-005      38.67  <-- SCF
      3  -1.10006461E+004  3.13437108E+000  -2.70348408E-006      38.89  <-- SCF
      4  -1.10006461E+004  3.13602992E+000   6.88072905E-006      39.11  <-- SCF
------------------------------------------------------------------------ <-- SCF
 
Final energy, E             =  -11000.58870111     eV
Final free energy (E-TS)    =  -11000.64613300     eV
(energies not corrected for finite basis set)
 
NB est. 0K energy (E-0.5TS)      =  -11000.61741705     eV
 
 
 *********************************** Forces ***********************************
 *                                                                            *
 *                        Cartesian components (eV/A)                         *
 * -------------------------------------------------------------------------- *
 *                   x                    y                    z              *
 *                                                                            *
 * C         1      0.00000              0.00000              3.03565         *
 * O         1      0.00000              0.00000              0.75167         *
 * Pd        1      0.00000(cons'd)      0.00000(cons'd)      2.54273(cons'd) *
 * Pd        2      0.00000              0.00000              0.05356         *
 * Pd        3      0.00000(cons'd)      0.00000(cons'd)     -6.38361(cons'd) *
 *                                                                            *
 ******************************************************************************
  
 +------------+-------------+-------------+-----------------+ <-- min BFGS
 |    Step    |   lambda    |   F.delta'  |    enthalpy     | <-- min BFGS
 +------------+-------------+-------------+-----------------+ <-- min BFGS
 |  previous  |    0.000000 |    0.751381 |   -11000.647706 | <-- min BFGS
 | trial step |    0.500000 |    0.695486 |   -11000.646133 | <-- min BFGS
 +------------+-------------+-------------+-----------------+ <-- min BFGS
  

--------------------------------------------------------------------------------
 BFGS: improving iteration         2 with bisection search (lambda=  0.250000)
--------------------------------------------------------------------------------
 
                           -------------------------------
                                     Cell Contents
                           -------------------------------
 
            xxxxxxxxxxxxxxxxxxxxxxxxxxxxxxxxxxxxxxxxxxxxxxxxxxxxxxxxxxxx
            x  Element    Atom        Fractional coordinates of atoms  x
            x            Number           u          v          w      x
            x----------------------------------------------------------x
            x  C            1        -0.500000   0.000000   0.381492   x
            x  O            1        -0.500000   0.000000   0.493027   x
            x  Pd           1         0.500000   0.500000   0.000000   x
            x  Pd           2        -0.500000  -0.500000   0.250436   x
            x  Pd           3         0.000000   0.000000   0.129706   x
            xxxxxxxxxxxxxxxxxxxxxxxxxxxxxxxxxxxxxxxxxxxxxxxxxxxxxxxxxxxx
 
 
------------------------------------------------------------------------ <-- SCF
SCF loop      Energy           Fermi           Energy gain       Timer   <-- SCF
                               energy          per atom          (sec)   <-- SCF
------------------------------------------------------------------------ <-- SCF
Initial  -1.10007640E+004  0.00000000E+000                        39.34  <-- SCF
      1  -1.10006470E+004  3.13577698E+000  -2.33954402E-002      39.56  <-- SCF
      2  -1.10006470E+004  3.13577685E+000   3.24552629E-006      39.78  <-- SCF
      3  -1.10006470E+004  3.13628124E+000   3.82229235E-006      39.98  <-- SCF
      4  -1.10006471E+004  3.13686749E+000   1.28357385E-005      40.20  <-- SCF
      5  -1.10006470E+004  3.13720721E+000  -2.08145724E-005      40.39  <-- SCF
      6  -1.10006470E+004  3.13750619E+000   7.64274248E-006      40.58  <-- SCF
      7  -1.10006470E+004  3.13742579E+000  -5.43254585E-007      40.83  <-- SCF
------------------------------------------------------------------------ <-- SCF
 
Final energy, E             =  -11000.58947461     eV
Final free energy (E-TS)    =  -11000.64704252     eV
(energies not corrected for finite basis set)
 
NB est. 0K energy (E-0.5TS)      =  -11000.61825856     eV
 
 
 *********************************** Forces ***********************************
 *                                                                            *
 *                        Cartesian components (eV/A)                         *
 * -------------------------------------------------------------------------- *
 *                   x                    y                    z              *
 *                                                                            *
 * C         1      0.00000              0.00000              2.93527         *
 * O         1      0.00000              0.00000              0.86683         *
 * Pd        1      0.00000(cons'd)      0.00000(cons'd)      2.56051(cons'd) *
 * Pd        2      0.00000              0.00000              0.01804         *
 * Pd        3      0.00000(cons'd)      0.00000(cons'd)     -6.38066(cons'd) *
 *                                                                            *
 ******************************************************************************
  
 +------------+-------------+-------------+-----------------+ <-- min BFGS
 |    Step    |   lambda    |   F.delta'  |    enthalpy     | <-- min BFGS
 +------------+-------------+-------------+-----------------+ <-- min BFGS
 |  previous  |    0.000000 |    0.751381 |   -11000.647706 | <-- min BFGS
 | trial step |    0.250000 |    0.725534 |   -11000.647043 | <-- min BFGS
 +------------+-------------+-------------+-----------------+ <-- min BFGS
  

--------------------------------------------------------------------------------
 BFGS: improving iteration         2 with bisection search (lambda=  0.125000)
--------------------------------------------------------------------------------
 
                           -------------------------------
                                     Cell Contents
                           -------------------------------
 
            xxxxxxxxxxxxxxxxxxxxxxxxxxxxxxxxxxxxxxxxxxxxxxxxxxxxxxxxxxxx
            x  Element    Atom        Fractional coordinates of atoms  x
            x            Number           u          v          w      x
            x----------------------------------------------------------x
            x  C            1        -0.500000   0.000000   0.381453   x
            x  O            1        -0.500000   0.000000   0.492923   x
            x  Pd           1         0.500000   0.500000   0.000000   x
            x  Pd           2        -0.500000  -0.500000   0.250445   x
            x  Pd           3         0.000000   0.000000   0.129706   x
            xxxxxxxxxxxxxxxxxxxxxxxxxxxxxxxxxxxxxxxxxxxxxxxxxxxxxxxxxxxx
 
 
------------------------------------------------------------------------ <-- SCF
SCF loop      Energy           Fermi           Energy gain       Timer   <-- SCF
                               energy          per atom          (sec)   <-- SCF
------------------------------------------------------------------------ <-- SCF
Initial  -1.10005959E+004  0.00000000E+000                        41.08  <-- SCF
      1  -1.10006475E+004  3.13743735E+000   1.03171691E-002      41.30  <-- SCF
      2  -1.10006475E+004  3.13743733E+000   7.47765038E-007      41.47  <-- SCF
      3  -1.10006475E+004  3.13785472E+000   1.93545612E-006      41.64  <-- SCF
      4  -1.10006475E+004  3.13860911E+000   6.09605301E-007      41.81  <-- SCF
------------------------------------------------------------------------ <-- SCF
 
Final energy, E             =  -11000.58993133     eV
Final free energy (E-TS)    =  -11000.64746752     eV
(energies not corrected for finite basis set)
 
NB est. 0K energy (E-0.5TS)      =  -11000.61869942     eV
 
 
 *********************************** Forces ***********************************
 *                                                                            *
 *                        Cartesian components (eV/A)                         *
 * -------------------------------------------------------------------------- *
 *                   x                    y                    z              *
 *                                                                            *
 * C         1      0.00000              0.00000              2.90045         *
 * O         1      0.00000              0.00000              0.90662         *
 * Pd        1      0.00000(cons'd)      0.00000(cons'd)      2.56199(cons'd) *
 * Pd        2      0.00000              0.00000              0.00826         *
 * Pd        3      0.00000(cons'd)      0.00000(cons'd)     -6.37733(cons'd) *
 *                                                                            *
 ******************************************************************************
  
 +------------+-------------+-------------+-----------------+ <-- min BFGS
 |    Step    |   lambda    |   F.delta'  |    enthalpy     | <-- min BFGS
 +------------+-------------+-------------+-----------------+ <-- min BFGS
 |  previous  |    0.000000 |    0.751381 |   -11000.647706 | <-- min BFGS
 | trial step |    0.125000 |    0.735813 |   -11000.647468 | <-- min BFGS
 +------------+-------------+-------------+-----------------+ <-- min BFGS
  

--------------------------------------------------------------------------------
 BFGS: improving iteration         2 with bisection search (lambda=  0.062500)
--------------------------------------------------------------------------------
 
                           -------------------------------
                                     Cell Contents
                           -------------------------------
 
            xxxxxxxxxxxxxxxxxxxxxxxxxxxxxxxxxxxxxxxxxxxxxxxxxxxxxxxxxxxx
            x  Element    Atom        Fractional coordinates of atoms  x
            x            Number           u          v          w      x
            x----------------------------------------------------------x
            x  C            1        -0.500000   0.000000   0.381433   x
            x  O            1        -0.500000   0.000000   0.492871   x
            x  Pd           1         0.500000   0.500000   0.000000   x
            x  Pd           2        -0.500000  -0.500000   0.250450   x
            x  Pd           3         0.000000   0.000000   0.129706   x
            xxxxxxxxxxxxxxxxxxxxxxxxxxxxxxxxxxxxxxxxxxxxxxxxxxxxxxxxxxxx
 
 
------------------------------------------------------------------------ <-- SCF
SCF loop      Energy           Fermi           Energy gain       Timer   <-- SCF
                               energy          per atom          (sec)   <-- SCF
------------------------------------------------------------------------ <-- SCF
Initial  -1.10006231E+004  0.00000000E+000                        42.02  <-- SCF
      1  -1.10006477E+004  3.13852204E+000   4.90352170E-003      42.25  <-- SCF
      2  -1.10006477E+004  3.13852203E+000   2.18288623E-007      42.44  <-- SCF
      3  -1.10006477E+004  3.13870620E+000   1.25758673E-006      42.61  <-- SCF
      4  -1.10006477E+004  3.13908319E+000  -1.94867775E-007      42.80  <-- SCF
------------------------------------------------------------------------ <-- SCF
 
Final energy, E             =  -11000.59006127     eV
Final free energy (E-TS)    =  -11000.64765799     eV
(energies not corrected for finite basis set)
 
NB est. 0K energy (E-0.5TS)      =  -11000.61885963     eV
 
 
 *********************************** Forces ***********************************
 *                                                                            *
 *                        Cartesian components (eV/A)                         *
 * -------------------------------------------------------------------------- *
 *                   x                    y                    z              *
 *                                                                            *
 * C         1      0.00000              0.00000              2.87769         *
 * O         1      0.00000              0.00000              0.93227         *
 * Pd        1      0.00000(cons'd)      0.00000(cons'd)      2.57503(cons'd) *
 * Pd        2      0.00000              0.00000             -0.00834         *
 * Pd        3      0.00000(cons'd)      0.00000(cons'd)     -6.37666(cons'd) *
 *                                                                            *
 ******************************************************************************
  
 +------------+-------------+-------------+-----------------+ <-- min BFGS
 |    Step    |   lambda    |   F.delta'  |    enthalpy     | <-- min BFGS
 +------------+-------------+-------------+-----------------+ <-- min BFGS
 |  previous  |    0.000000 |    0.751381 |   -11000.647706 | <-- min BFGS
 | trial step |    0.062500 |    0.742743 |   -11000.647658 | <-- min BFGS
 +------------+-------------+-------------+-----------------+ <-- min BFGS
  

--------------------------------------------------------------------------------
 BFGS: improving iteration         2 with bisection search (lambda=  0.031250)
--------------------------------------------------------------------------------
 
                           -------------------------------
                                     Cell Contents
                           -------------------------------
 
            xxxxxxxxxxxxxxxxxxxxxxxxxxxxxxxxxxxxxxxxxxxxxxxxxxxxxxxxxxxx
            x  Element    Atom        Fractional coordinates of atoms  x
            x            Number           u          v          w      x
            x----------------------------------------------------------x
            x  C            1        -0.500000   0.000000   0.381424   x
            x  O            1        -0.500000   0.000000   0.492844   x
            x  Pd           1         0.500000   0.500000   0.000000   x
            x  Pd           2        -0.500000  -0.500000   0.250452   x
            x  Pd           3         0.000000   0.000000   0.129706   x
            xxxxxxxxxxxxxxxxxxxxxxxxxxxxxxxxxxxxxxxxxxxxxxxxxxxxxxxxxxxx
 
 
------------------------------------------------------------------------ <-- SCF
SCF loop      Energy           Fermi           Energy gain       Timer   <-- SCF
                               energy          per atom          (sec)   <-- SCF
------------------------------------------------------------------------ <-- SCF
Initial  -1.10005780E+004  0.00000000E+000                        43.00  <-- SCF
      1  -1.10006477E+004  3.13907507E+000   1.39523216E-002      43.20  <-- SCF
      2  -1.10006477E+004  3.13907506E+000   6.94863646E-008      43.38  <-- SCF
      3  -1.10006478E+004  3.13925716E+000   1.64054734E-006      43.53  <-- SCF
      4  -1.10006478E+004  3.13943126E+000   1.37051247E-006      43.72  <-- SCF
------------------------------------------------------------------------ <-- SCF
 
Final energy, E             =  -11000.59024146     eV
Final free energy (E-TS)    =  -11000.64775888     eV
(energies not corrected for finite basis set)
 
NB est. 0K energy (E-0.5TS)      =  -11000.61900017     eV
 
 
 *********************************** Forces ***********************************
 *                                                                            *
 *                        Cartesian components (eV/A)                         *
 * -------------------------------------------------------------------------- *
 *                   x                    y                    z              *
 *                                                                            *
 * C         1      0.00000              0.00000              2.86240         *
 * O         1      0.00000              0.00000              0.94805         *
 * Pd        1      0.00000(cons'd)      0.00000(cons'd)      2.56271(cons'd) *
 * Pd        2      0.00000              0.00000              0.00281         *
 * Pd        3      0.00000(cons'd)      0.00000(cons'd)     -6.37597(cons'd) *
 *                                                                            *
 ******************************************************************************
  
 +------------+-------------+-------------+-----------------+ <-- min BFGS
 |    Step    |   lambda    |   F.delta'  |    enthalpy     | <-- min BFGS
 +------------+-------------+-------------+-----------------+ <-- min BFGS
 |  previous  |    0.000000 |    0.751381 |   -11000.647706 | <-- min BFGS
 | trial step |    0.031250 |    0.746107 |   -11000.647759 | <-- min BFGS
 +------------+-------------+-------------+-----------------+ <-- min BFGS
  
 BFGS: looks like bisection search has succeeded in going downhill
 BFGS: finished iteration     2 with enthalpy= -1.10006478E+004 eV
  
 +-----------+-----------------+-----------------+------------+-----+ <-- BFGS
 | Parameter |      value      |    tolerance    |    units   | OK? | <-- BFGS
 +-----------+-----------------+-----------------+------------+-----+ <-- BFGS
 |  dE/ion   |   1.057471E-005 |   5.000000E-005 |         eV | Yes | <-- BFGS
 |  |F|max   |   2.862400E+000 |   1.000000E-001 |       eV/A | No  | <-- BFGS
 |  |dR|max  |   2.821421E-004 |   5.000000E-003 |          A | Yes | <-- BFGS
 +-----------+-----------------+-----------------+------------+-----+ <-- BFGS
  

================================================================================
 Starting BFGS iteration          3 ...
================================================================================
  
 +------------+-------------+-------------+-----------------+ <-- min BFGS
 |    Step    |   lambda    |   F.delta'  |    enthalpy     | <-- min BFGS
 +------------+-------------+-------------+-----------------+ <-- min BFGS
 |  previous  |    0.000000 |    0.926938 |   -11000.647759 | <-- min BFGS
 +------------+-------------+-------------+-----------------+ <-- min BFGS
  

--------------------------------------------------------------------------------
 BFGS: starting iteration         3 with trial guess (lambda=  1.000000)
--------------------------------------------------------------------------------
 
                           -------------------------------
                                     Cell Contents
                           -------------------------------
 
            xxxxxxxxxxxxxxxxxxxxxxxxxxxxxxxxxxxxxxxxxxxxxxxxxxxxxxxxxxxx
            x  Element    Atom        Fractional coordinates of atoms  x
            x            Number           u          v          w      x
            x----------------------------------------------------------x
            x  C            1        -0.500000   0.000000   0.384284   x
            x  O            1        -0.500000   0.000000   0.497312   x
            x  Pd           1         0.500000   0.500000  -0.000000   x
            x  Pd           2        -0.500000  -0.500000   0.250051   x
            x  Pd           3         0.000000   0.000000   0.129706   x
            xxxxxxxxxxxxxxxxxxxxxxxxxxxxxxxxxxxxxxxxxxxxxxxxxxxxxxxxxxxx
 
 
------------------------------------------------------------------------ <-- SCF
SCF loop      Energy           Fermi           Energy gain       Timer   <-- SCF
                               energy          per atom          (sec)   <-- SCF
------------------------------------------------------------------------ <-- SCF
Initial  -1.09992699E+004  0.00000000E+000                        44.02  <-- SCF
      1  -1.10006183E+004  3.14845031E+000   2.69688374E-001      44.25  <-- SCF
      2  -1.10006378E+004  3.14857853E+000   3.88395147E-003      44.59  <-- SCF
      3  -1.10006307E+004  3.14838960E+000  -1.41279809E-003      44.92  <-- SCF
      4  -1.10006359E+004  3.14557908E+000   1.03327618E-003      45.25  <-- SCF
      5  -1.10006334E+004  3.13747818E+000  -5.01067369E-004      45.61  <-- SCF
      6  -1.10006346E+004  3.13321837E+000   2.40092898E-004      45.88  <-- SCF
      7  -1.10006346E+004  3.13641729E+000   5.35789105E-006      46.12  <-- SCF
      8  -1.10006346E+004  3.13431789E+000   5.86042922E-006      46.34  <-- SCF
      9  -1.10006346E+004  3.13346841E+000   3.10099441E-006      46.50  <-- SCF
------------------------------------------------------------------------ <-- SCF
 
Final energy, E             =  -11000.57708299     eV
Final free energy (E-TS)    =  -11000.63463759     eV
(energies not corrected for finite basis set)
 
NB est. 0K energy (E-0.5TS)      =  -11000.60586029     eV
 
 
 *********************************** Forces ***********************************
 *                                                                            *
 *                        Cartesian components (eV/A)                         *
 * -------------------------------------------------------------------------- *
 *                   x                    y                    z              *
 *                                                                            *
 * C         1      0.00000              0.00000              3.69455         *
 * O         1      0.00000              0.00000             -0.14146         *
 * Pd        1      0.00000(cons'd)      0.00000(cons'd)      2.33108(cons'd) *
 * Pd        2      0.00000              0.00000              0.59537         *
 * Pd        3      0.00000(cons'd)      0.00000(cons'd)     -6.47954(cons'd) *
 *                                                                            *
 ******************************************************************************
  
 +------------+-------------+-------------+-----------------+ <-- min BFGS
 |    Step    |   lambda    |   F.delta'  |    enthalpy     | <-- min BFGS
 +------------+-------------+-------------+-----------------+ <-- min BFGS
 |  previous  |    0.000000 |    0.926938 |   -11000.647759 | <-- min BFGS
 | trial step |    1.000000 |    0.723594 |   -11000.634638 | <-- min BFGS
 +------------+-------------+-------------+-----------------+ <-- min BFGS
  
 BFGS: Warning - trial step suggests complex energy landscape
                 in which simple line minimization will fail.
  
               - This is usually an indication that the forces/streses
                 are not accurate enough. Consider making the following changes:
  
                 1) Increase cutoff_energy or basis_precision
                 2) Reduce elec_energy_tol and/or elec_force_tol
                 3) Increase grid_scale
                 4) Increase fine_grid_scale
  
               - Proceeding with a bisection search to find root instead.
  

--------------------------------------------------------------------------------
 BFGS: improving iteration         3 with bisection search (lambda=  0.500000)
--------------------------------------------------------------------------------
 
                           -------------------------------
                                     Cell Contents
                           -------------------------------
 
            xxxxxxxxxxxxxxxxxxxxxxxxxxxxxxxxxxxxxxxxxxxxxxxxxxxxxxxxxxxx
            x  Element    Atom        Fractional coordinates of atoms  x
            x            Number           u          v          w      x
            x----------------------------------------------------------x
            x  C            1        -0.500000   0.000000   0.382854   x
            x  O            1        -0.500000   0.000000   0.495078   x
            x  Pd           1         0.500000   0.500000  -0.000000   x
            x  Pd           2        -0.500000  -0.500000   0.250251   x
            x  Pd           3         0.000000   0.000000   0.129706   x
            xxxxxxxxxxxxxxxxxxxxxxxxxxxxxxxxxxxxxxxxxxxxxxxxxxxxxxxxxxxx
 
 
------------------------------------------------------------------------ <-- SCF
SCF loop      Energy           Fermi           Energy gain       Timer   <-- SCF
                               energy          per atom          (sec)   <-- SCF
------------------------------------------------------------------------ <-- SCF
Initial  -1.10012684E+004  0.00000000E+000                        46.70  <-- SCF
      1  -1.10006429E+004  3.12745299E+000  -1.25099926E-001      46.94  <-- SCF
      2  -1.10006455E+004  3.12744803E+000   5.25403311E-004      47.34  <-- SCF
      3  -1.10006435E+004  3.12728926E+000  -3.92149056E-004      47.64  <-- SCF
      4  -1.10006445E+004  3.13047863E+000   2.03385387E-004      47.95  <-- SCF
      5  -1.10006439E+004  3.13370622E+000  -1.30055678E-004      48.23  <-- SCF
      6  -1.10006440E+004  3.13530123E+000   2.11042323E-005      48.45  <-- SCF
      7  -1.10006440E+004  3.13344072E+000  -7.45160927E-006      48.62  <-- SCF
      8  -1.10006439E+004  3.13428548E+000  -2.32966746E-006      48.86  <-- SCF
------------------------------------------------------------------------ <-- SCF
 
Final energy, E             =  -11000.58630427     eV
Final free energy (E-TS)    =  -11000.64394388     eV
(energies not corrected for finite basis set)
 
NB est. 0K energy (E-0.5TS)      =  -11000.61512408     eV
 
 
 *********************************** Forces ***********************************
 *                                                                            *
 *                        Cartesian components (eV/A)                         *
 * -------------------------------------------------------------------------- *
 *                   x                    y                    z              *
 *                                                                            *
 * C         1      0.00000              0.00000              3.29706         *
 * O         1      0.00000              0.00000              0.39103         *
 * Pd        1      0.00000(cons'd)      0.00000(cons'd)      2.43946(cons'd) *
 * Pd        2      0.00000              0.00000              0.29822         *
 * Pd        3      0.00000(cons'd)      0.00000(cons'd)     -6.42578(cons'd) *
 *                                                                            *
 ******************************************************************************
  
 +------------+-------------+-------------+-----------------+ <-- min BFGS
 |    Step    |   lambda    |   F.delta'  |    enthalpy     | <-- min BFGS
 +------------+-------------+-------------+-----------------+ <-- min BFGS
 |  previous  |    0.000000 |    0.926938 |   -11000.647759 | <-- min BFGS
 | trial step |    0.500000 |    0.825170 |   -11000.643944 | <-- min BFGS
 +------------+-------------+-------------+-----------------+ <-- min BFGS
  

--------------------------------------------------------------------------------
 BFGS: improving iteration         3 with bisection search (lambda=  0.250000)
--------------------------------------------------------------------------------
 
                           -------------------------------
                                     Cell Contents
                           -------------------------------
 
            xxxxxxxxxxxxxxxxxxxxxxxxxxxxxxxxxxxxxxxxxxxxxxxxxxxxxxxxxxxx
            x  Element    Atom        Fractional coordinates of atoms  x
            x            Number           u          v          w      x
            x----------------------------------------------------------x
            x  C            1        -0.500000   0.000000   0.382139   x
            x  O            1        -0.500000   0.000000   0.493961   x
            x  Pd           1         0.500000   0.500000  -0.000000   x
            x  Pd           2        -0.500000  -0.500000   0.250352   x
            x  Pd           3         0.000000   0.000000   0.129706   x
            xxxxxxxxxxxxxxxxxxxxxxxxxxxxxxxxxxxxxxxxxxxxxxxxxxxxxxxxxxxx
 
 
------------------------------------------------------------------------ <-- SCF
SCF loop      Energy           Fermi           Energy gain       Timer   <-- SCF
                               energy          per atom          (sec)   <-- SCF
------------------------------------------------------------------------ <-- SCF
Initial  -1.10008783E+004  0.00000000E+000                        49.08  <-- SCF
      1  -1.10006464E+004  3.13252865E+000  -4.63793014E-002      49.31  <-- SCF
      2  -1.10006470E+004  3.13252482E+000   1.10496632E-004      49.61  <-- SCF
      3  -1.10006466E+004  3.13314450E+000  -7.55070055E-005      49.89  <-- SCF
      4  -1.10006468E+004  3.13449201E+000   2.74145040E-005      50.16  <-- SCF
      5  -1.10006465E+004  3.13627912E+000  -5.82468483E-005      50.41  <-- SCF
      6  -1.10006465E+004  3.13729276E+000  -8.58222418E-007      50.59  <-- SCF
      7  -1.10006465E+004  3.13630472E+000  -9.32452163E-007      50.81  <-- SCF
------------------------------------------------------------------------ <-- SCF
 
Final energy, E             =  -11000.58885332     eV
Final free energy (E-TS)    =  -11000.64645587     eV
(energies not corrected for finite basis set)
 
NB est. 0K energy (E-0.5TS)      =  -11000.61765459     eV
 
 
 *********************************** Forces ***********************************
 *                                                                            *
 *                        Cartesian components (eV/A)                         *
 * -------------------------------------------------------------------------- *
 *                   x                    y                    z              *
 *                                                                            *
 * C         1      0.00000              0.00000              3.08544         *
 * O         1      0.00000              0.00000              0.65898         *
 * Pd        1      0.00000(cons'd)      0.00000(cons'd)      2.50831(cons'd) *
 * Pd        2      0.00000              0.00000              0.14711         *
 * Pd        3      0.00000(cons'd)      0.00000(cons'd)     -6.39984(cons'd) *
 *                                                                            *
 ******************************************************************************
  
 +------------+-------------+-------------+-----------------+ <-- min BFGS
 |    Step    |   lambda    |   F.delta'  |    enthalpy     | <-- min BFGS
 +------------+-------------+-------------+-----------------+ <-- min BFGS
 |  previous  |    0.000000 |    0.926938 |   -11000.647759 | <-- min BFGS
 | trial step |    0.250000 |    0.873854 |   -11000.646456 | <-- min BFGS
 +------------+-------------+-------------+-----------------+ <-- min BFGS
  

--------------------------------------------------------------------------------
 BFGS: improving iteration         3 with bisection search (lambda=  0.125000)
--------------------------------------------------------------------------------
 
                           -------------------------------
                                     Cell Contents
                           -------------------------------
 
            xxxxxxxxxxxxxxxxxxxxxxxxxxxxxxxxxxxxxxxxxxxxxxxxxxxxxxxxxxxx
            x  Element    Atom        Fractional coordinates of atoms  x
            x            Number           u          v          w      x
            x----------------------------------------------------------x
            x  C            1        -0.500000   0.000000   0.381781   x
            x  O            1        -0.500000   0.000000   0.493403   x
            x  Pd           1         0.500000   0.500000  -0.000000   x
            x  Pd           2        -0.500000  -0.500000   0.250402   x
            x  Pd           3         0.000000   0.000000   0.129706   x
            xxxxxxxxxxxxxxxxxxxxxxxxxxxxxxxxxxxxxxxxxxxxxxxxxxxxxxxxxxxx
 
 
------------------------------------------------------------------------ <-- SCF
SCF loop      Energy           Fermi           Energy gain       Timer   <-- SCF
                               energy          per atom          (sec)   <-- SCF
------------------------------------------------------------------------ <-- SCF
Initial  -1.10007244E+004  0.00000000E+000                        51.08  <-- SCF
      1  -1.10006473E+004  3.13561857E+000  -1.54242529E-002      51.34  <-- SCF
      2  -1.10006474E+004  3.13561738E+000   2.66663241E-005      51.67  <-- SCF
      3  -1.10006473E+004  3.13601614E+000  -1.18113703E-005      52.02  <-- SCF
      4  -1.10006474E+004  3.13688677E+000   1.73795426E-005      52.27  <-- SCF
      5  -1.10006473E+004  3.13782758E+000  -2.50156407E-005      52.55  <-- SCF
      6  -1.10006473E+004  3.13838872E+000   2.03968706E-006      52.75  <-- SCF
      7  -1.10006473E+004  3.13791182E+000   8.38985632E-007      52.94  <-- SCF
------------------------------------------------------------------------ <-- SCF
 
Final energy, E             =  -11000.58972092     eV
Final free energy (E-TS)    =  -11000.64732308     eV
(energies not corrected for finite basis set)
 
NB est. 0K energy (E-0.5TS)      =  -11000.61852200     eV
 
 
 *********************************** Forces ***********************************
 *                                                                            *
 *                        Cartesian components (eV/A)                         *
 * -------------------------------------------------------------------------- *
 *                   x                    y                    z              *
 *                                                                            *
 * C         1      0.00000              0.00000              2.97383         *
 * O         1      0.00000              0.00000              0.80376         *
 * Pd        1      0.00000(cons'd)      0.00000(cons'd)      2.54031(cons'd) *
 * Pd        2      0.00000              0.00000              0.07038         *
 * Pd        3      0.00000(cons'd)      0.00000(cons'd)     -6.38828(cons'd) *
 *                                                                            *
 ******************************************************************************
  
 +------------+-------------+-------------+-----------------+ <-- min BFGS
 |    Step    |   lambda    |   F.delta'  |    enthalpy     | <-- min BFGS
 +------------+-------------+-------------+-----------------+ <-- min BFGS
 |  previous  |    0.000000 |    0.926938 |   -11000.647759 | <-- min BFGS
 | trial step |    0.125000 |    0.900597 |   -11000.647323 | <-- min BFGS
 +------------+-------------+-------------+-----------------+ <-- min BFGS
  

--------------------------------------------------------------------------------
 BFGS: improving iteration         3 with bisection search (lambda=  0.062500)
--------------------------------------------------------------------------------
 
                           -------------------------------
[...]
 
                           -------------------------------
                                     Cell Contents
                           -------------------------------
 
            xxxxxxxxxxxxxxxxxxxxxxxxxxxxxxxxxxxxxxxxxxxxxxxxxxxxxxxxxxxx
            x  Element    Atom        Fractional coordinates of atoms  x
            x            Number           u          v          w      x
            x----------------------------------------------------------x
            x  C            1        -0.500000   0.000000   0.449664   x
            x  O            1        -0.500000   0.000000   0.561284   x
            x  Pd           1         0.500000   0.500000   0.000000   x
            x  Pd           2        -0.500000  -0.500000   0.266049   x
            x  Pd           3         0.000000   0.000000   0.129706   x
            xxxxxxxxxxxxxxxxxxxxxxxxxxxxxxxxxxxxxxxxxxxxxxxxxxxxxxxxxxxx
 
 
------------------------------------------------------------------------ <-- SCF
SCF loop      Energy           Fermi           Energy gain       Timer   <-- SCF
                               energy          per atom          (sec)   <-- SCF
------------------------------------------------------------------------ <-- SCF
Initial  -1.10004183E+004  0.00000000E+000                      1036.33  <-- SCF
      1  -1.09991955E+004  3.41170178E+000  -2.44559057E-001    1036.55  <-- SCF
      2  -1.09992339E+004  3.41232001E+000   7.67966841E-003    1036.84  <-- SCF
      3  -1.09992241E+004  3.38044561E+000  -1.94960436E-003    1037.12  <-- SCF
      4  -1.09992321E+004  3.36433725E+000   1.58632199E-003    1037.42  <-- SCF
      5  -1.09992265E+004  3.36846397E+000  -1.10873015E-003    1037.69  <-- SCF
      6  -1.09992278E+004  3.37336545E+000   2.62111345E-004    1037.95  <-- SCF
      7  -1.09992281E+004  3.36251693E+000   5.11860060E-005    1038.19  <-- SCF
      8  -1.09992283E+004  3.36164577E+000   5.06785645E-005    1038.41  <-- SCF
      9  -1.09992283E+004  3.35996249E+000  -3.40433163E-006    1038.61  <-- SCF
     10  -1.09992283E+004  3.35742617E+000  -2.57279131E-007    1038.81  <-- SCF
     11  -1.09992283E+004  3.35653704E+000   1.02614607E-006    1039.00  <-- SCF
------------------------------------------------------------------------ <-- SCF
 
Final energy, E             =  -10999.17030367     eV
Final free energy (E-TS)    =  -10999.22833156     eV
(energies not corrected for finite basis set)
 
NB est. 0K energy (E-0.5TS)      =  -10999.19931762     eV
 
 
 *********************************** Forces ***********************************
 *                                                                            *
 *                        Cartesian components (eV/A)                         *
 * -------------------------------------------------------------------------- *
 *                   x                    y                    z              *
 *                                                                            *
 * C         1      0.00000              0.00000              0.09785         *
 * O         1      0.00000              0.00000             -2.16022         *
 * Pd        1      0.00000(cons'd)      0.00000(cons'd)      3.48924(cons'd) *
 * Pd        2      0.00000              0.00000              6.07901         *
 * Pd        3      0.00000(cons'd)      0.00000(cons'd)     -7.50588(cons'd) *
 *                                                                            *
 ******************************************************************************
  
 +------------+-------------+-------------+-----------------+ <-- min BFGS
 |    Step    |   lambda    |   F.delta'  |    enthalpy     | <-- min BFGS
 +------------+-------------+-------------+-----------------+ <-- min BFGS
 |  previous  |    0.000000 |    0.280869 |   -10999.304212 | <-- min BFGS
 | trial step |    0.250000 |    0.277438 |   -10999.228332 | <-- min BFGS
 +------------+-------------+-------------+-----------------+ <-- min BFGS
  

--------------------------------------------------------------------------------
 BFGS: improving iteration       100 with bisection search (lambda=  0.125000)
--------------------------------------------------------------------------------
 
                           -------------------------------
                                     Cell Contents
                           -------------------------------
 
            xxxxxxxxxxxxxxxxxxxxxxxxxxxxxxxxxxxxxxxxxxxxxxxxxxxxxxxxxxxx
            x  Element    Atom        Fractional coordinates of atoms  x
            x            Number           u          v          w      x
            x----------------------------------------------------------x
            x  C            1        -0.500000   0.000000   0.446954   x
            x  O            1        -0.500000   0.000000   0.558688   x
            x  Pd           1         0.500000   0.500000   0.000000   x
            x  Pd           2        -0.500000  -0.500000   0.264712   x
            x  Pd           3         0.000000   0.000000   0.129706   x
            xxxxxxxxxxxxxxxxxxxxxxxxxxxxxxxxxxxxxxxxxxxxxxxxxxxxxxxxxxxx
 
 
------------------------------------------------------------------------ <-- SCF
SCF loop      Energy           Fermi           Energy gain       Timer   <-- SCF
                               energy          per atom          (sec)   <-- SCF
------------------------------------------------------------------------ <-- SCF
Initial  -1.09996192E+004  0.00000000E+000                      1039.20  <-- SCF
      1  -1.09992166E+004  3.38003273E+000  -8.05106278E-002    1039.42  <-- SCF
      2  -1.09992230E+004  3.38003116E+000   1.27039063E-003    1039.72  <-- SCF
      3  -1.09992206E+004  3.36625274E+000  -4.76861250E-004    1040.00  <-- SCF
      4  -1.09992207E+004  3.35372873E+000   2.12108957E-005    1040.28  <-- SCF
      5  -1.09992210E+004  3.35694439E+000   6.81676327E-005    1040.53  <-- SCF
      6  -1.09992201E+004  3.36063066E+000  -1.94723153E-004    1040.78  <-- SCF
      7  -1.09992205E+004  3.35456820E+000   9.60248454E-005    1041.02  <-- SCF
      8  -1.09992206E+004  3.35412816E+000   3.63126402E-006    1041.22  <-- SCF
      9  -1.09992206E+004  3.35329054E+000  -8.67354346E-007    1041.39  <-- SCF
------------------------------------------------------------------------ <-- SCF
 
Final energy, E             =  -10999.16368112     eV
Final free energy (E-TS)    =  -10999.22055382     eV
(energies not corrected for finite basis set)
 
NB est. 0K energy (E-0.5TS)      =  -10999.19211747     eV
 
 
 *********************************** Forces ***********************************
 *                                                                            *
 *                        Cartesian components (eV/A)                         *
 * -------------------------------------------------------------------------- *
 *                   x                    y                    z              *
 *                                                                            *
 * C         1      0.00000              0.00000              0.76256         *
 * O         1      0.00000              0.00000             -1.57820         *
 * Pd        1      0.00000(cons'd)      0.00000(cons'd)      4.12189(cons'd) *
 * Pd        2      0.00000              0.00000              3.60811         *
 * Pd        3      0.00000(cons'd)      0.00000(cons'd)     -6.91436(cons'd) *
 *                                                                            *
 ******************************************************************************
  
 +------------+-------------+-------------+-----------------+ <-- min BFGS
 |    Step    |   lambda    |   F.delta'  |    enthalpy     | <-- min BFGS
 +------------+-------------+-------------+-----------------+ <-- min BFGS
 |  previous  |    0.000000 |    0.280869 |   -10999.304212 | <-- min BFGS
 | trial step |    0.125000 |    0.278330 |   -10999.220554 | <-- min BFGS
 +------------+-------------+-------------+-----------------+ <-- min BFGS
  

--------------------------------------------------------------------------------
 BFGS: improving iteration       100 with bisection search (lambda=  0.062500)
--------------------------------------------------------------------------------
 
                           -------------------------------
                                     Cell Contents
                           -------------------------------
 
            xxxxxxxxxxxxxxxxxxxxxxxxxxxxxxxxxxxxxxxxxxxxxxxxxxxxxxxxxxxx
            x  Element    Atom        Fractional coordinates of atoms  x
            x            Number           u          v          w      x
            x----------------------------------------------------------x
            x  C            1        -0.500000   0.000000   0.445599   x
            x  O            1        -0.500000   0.000000   0.557390   x
            x  Pd           1         0.500000   0.500000   0.000000   x
            x  Pd           2        -0.500000  -0.500000   0.264043   x
            x  Pd           3         0.000000   0.000000   0.129706   x
            xxxxxxxxxxxxxxxxxxxxxxxxxxxxxxxxxxxxxxxxxxxxxxxxxxxxxxxxxxxx
 
 
------------------------------------------------------------------------ <-- SCF
SCF loop      Energy           Fermi           Energy gain       Timer   <-- SCF
                               energy          per atom          (sec)   <-- SCF
------------------------------------------------------------------------ <-- SCF
Initial  -1.09994050E+004  0.00000000E+000                      1041.59  <-- SCF
      1  -1.09992537E+004  3.36456439E+000  -3.02526043E-002    1041.81  <-- SCF
      2  -1.09992551E+004  3.36455378E+000   2.82164788E-004    1042.11  <-- SCF
      3  -1.09992545E+004  3.35767649E+000  -1.21378339E-004    1042.38  <-- SCF
      4  -1.09992544E+004  3.35077987E+000  -1.20007504E-005    1042.62  <-- SCF
      5  -1.09992546E+004  3.35289382E+000   2.90440964E-005    1042.88  <-- SCF
      6  -1.09992543E+004  3.35475914E+000  -5.49764850E-005    1043.09  <-- SCF
      7  -1.09992545E+004  3.35158394E+000   2.85939575E-005    1043.28  <-- SCF
      8  -1.09992545E+004  3.35110683E+000   1.42979560E-006    1043.48  <-- SCF
      9  -1.09992545E+004  3.35067691E+000  -3.07014867E-007    1043.66  <-- SCF
------------------------------------------------------------------------ <-- SCF
 
Final energy, E             =  -10999.19816161     eV
Final free energy (E-TS)    =  -10999.25445676     eV
(energies not corrected for finite basis set)
 
NB est. 0K energy (E-0.5TS)      =  -10999.22630919     eV
 
 
 *********************************** Forces ***********************************
 *                                                                            *
 *                        Cartesian components (eV/A)                         *
 * -------------------------------------------------------------------------- *
 *                   x                    y                    z              *
 *                                                                            *
 * C         1      0.00000              0.00000              1.42092         *
 * O         1      0.00000              0.00000             -0.97437         *
 * Pd        1      0.00000(cons'd)      0.00000(cons'd)      4.73774(cons'd) *
 * Pd        2      0.00000              0.00000              1.11300         *
 * Pd        3      0.00000(cons'd)      0.00000(cons'd)     -6.29729(cons'd) *
 *                                                                            *
 ******************************************************************************
  
 +------------+-------------+-------------+-----------------+ <-- min BFGS
 |    Step    |   lambda    |   F.delta'  |    enthalpy     | <-- min BFGS
 +------------+-------------+-------------+-----------------+ <-- min BFGS
 |  previous  |    0.000000 |    0.280869 |   -10999.304212 | <-- min BFGS
 | trial step |    0.062500 |    0.279923 |   -10999.254457 | <-- min BFGS
 +------------+-------------+-------------+-----------------+ <-- min BFGS
  

--------------------------------------------------------------------------------
 BFGS: improving iteration       100 with bisection search (lambda=  0.031250)
--------------------------------------------------------------------------------
 
                           -------------------------------
                                     Cell Contents
                           -------------------------------
 
            xxxxxxxxxxxxxxxxxxxxxxxxxxxxxxxxxxxxxxxxxxxxxxxxxxxxxxxxxxxx
            x  Element    Atom        Fractional coordinates of atoms  x
            x            Number           u          v          w      x
            x----------------------------------------------------------x
            x  C            1        -0.500000   0.000000   0.444921   x
            x  O            1        -0.500000   0.000000   0.556741   x
            x  Pd           1         0.500000   0.500000   0.000000   x
            x  Pd           2        -0.500000  -0.500000   0.263709   x
            x  Pd           3         0.000000   0.000000   0.129706   x
            xxxxxxxxxxxxxxxxxxxxxxxxxxxxxxxxxxxxxxxxxxxxxxxxxxxxxxxxxxxx
 
 
------------------------------------------------------------------------ <-- SCF
SCF loop      Energy           Fermi           Energy gain       Timer   <-- SCF
                               energy          per atom          (sec)   <-- SCF
------------------------------------------------------------------------ <-- SCF
Initial  -1.09993067E+004  0.00000000E+000                      1043.86  <-- SCF
      1  -1.09992777E+004  3.35630607E+000  -5.79945550E-003    1044.08  <-- SCF
      2  -1.09992780E+004  3.35630280E+000   6.90754832E-005    1044.36  <-- SCF
      3  -1.09992778E+004  3.35269507E+000  -3.52161873E-005    1044.58  <-- SCF
      4  -1.09992779E+004  3.34911924E+000   1.46697405E-005    1044.80  <-- SCF
      5  -1.09992778E+004  3.35058344E+000  -1.19965836E-005    1045.02  <-- SCF
      6  -1.09992778E+004  3.35141176E+000  -6.81898127E-006    1045.20  <-- SCF
      7  -1.09992778E+004  3.35004456E+000   4.23257853E-006    1045.38  <-- SCF
------------------------------------------------------------------------ <-- SCF
 
Final energy, E             =  -10999.22181785     eV
Final free energy (E-TS)    =  -10999.27782800     eV
(energies not corrected for finite basis set)
 
NB est. 0K energy (E-0.5TS)      =  -10999.24982293     eV
 
 
 *********************************** Forces ***********************************
 *                                                                            *
 *                        Cartesian components (eV/A)                         *
 * -------------------------------------------------------------------------- *
 *                   x                    y                    z              *
 *                                                                            *
 * C         1      0.00000              0.00000              1.61762         *
 * O         1      0.00000              0.00000             -0.80507         *
 * Pd        1      0.00000(cons'd)      0.00000(cons'd)      4.92606(cons'd) *
 * Pd        2      0.00000              0.00000              0.38258         *
 * Pd        3      0.00000(cons'd)      0.00000(cons'd)     -6.12118(cons'd) *
 *                                                                            *
 ******************************************************************************
  
 +------------+-------------+-------------+-----------------+ <-- min BFGS
 |    Step    |   lambda    |   F.delta'  |    enthalpy     | <-- min BFGS
 +------------+-------------+-------------+-----------------+ <-- min BFGS
 |  previous  |    0.000000 |    0.280869 |   -10999.304212 | <-- min BFGS
 | trial step |    0.031250 |    0.279531 |   -10999.277828 | <-- min BFGS
 +------------+-------------+-------------+-----------------+ <-- min BFGS
  
 BFGS: Warning - looks like bisection search has failed?
 BFGS:         - reverting to earlier configuration and reseting inverse Hessian
 BFGS: updated estimated <frequency>  =6884.05819 cm-1
 BFGS: finished iteration   100 with enthalpy= -1.09993042E+004 eV
  
 +-----------+-----------------+-----------------+------------+-----+ <-- BFGS
 | Parameter |      value      |    tolerance    |    units   | OK? | <-- BFGS
 +-----------+-----------------+-----------------+------------+-----+ <-- BFGS
 |  dE/ion   |   2.023765E-001 |   5.000000E-005 |         eV | No  | <-- BFGS
 |  |F|max   |   1.775500E+000 |   1.000000E-001 |       eV/A | No  | <-- BFGS
 |  |dR|max  |   2.645886E-001 |   5.000000E-003 |          A | No  | <-- BFGS
 +-----------+-----------------+-----------------+------------+-----+ <-- BFGS
  
 BFGS: WARNING - Geometry optimization failed to converge after        100 steps

================================================================================
 BFGS: Final Configuration:
================================================================================
 
                           -------------------------------
                                     Cell Contents
                           -------------------------------
 
            xxxxxxxxxxxxxxxxxxxxxxxxxxxxxxxxxxxxxxxxxxxxxxxxxxxxxxxxxxxx
            x  Element    Atom        Fractional coordinates of atoms  x
            x            Number           u          v          w      x
            x----------------------------------------------------------x
            x  C            1        -0.500000   0.000000   0.444244   x
            x  O            1        -0.500000   0.000000   0.556092   x
            x  Pd           1         0.500000   0.500000   0.000000   x
            x  Pd           2        -0.500000  -0.500000   0.263375   x
            x  Pd           3         0.000000   0.000000   0.129706   x
            xxxxxxxxxxxxxxxxxxxxxxxxxxxxxxxxxxxxxxxxxxxxxxxxxxxxxxxxxxxx
 
 
 BFGS: Final Enthalpy     = -1.09993042E+004 eV
 BFGS: Final <frequency>  =    6884.05819 cm-1
  
  **********************************************************
  *** There were at least    61 warnings during this run ***
  *** => please check the whole of this file carefully!  ***
  **********************************************************
 
 ***************************** Symmetrised Forces *****************************
 *                                                                            *
 *                        Cartesian components (eV/A)                         *
 * -------------------------------------------------------------------------- *
 *                   x                    y                    z              *
 *                                                                            *
 * C         1      0.00000              0.00000              0.92531         *
 * O         1      0.00000              0.00000              2.94939         *
 * Pd        1      0.00000(cons'd)      0.00000(cons'd)      2.54105(cons'd) *
 * Pd        2      0.00000              0.00000              2.15555         *
 * Pd        3      0.00000(cons'd)      0.00000(cons'd)     -8.57130(cons'd) *
 *                                                                            *
 ******************************************************************************

Writing analysis data to Pd__1_1_0_.castep_bin

Writing model to Pd__1_1_0_.check
 
 A BibTeX formatted list of references used in this run has been written to 
 Pd__1_1_0_.bib
 
Initialisation time =     23.38 s
Calculation time    =   1022.20 s
Finalisation time   =      0.02 s
Total time          =   1045.59 s
  
Overall parallel efficiency rating: Excellent (95%)                             
  
Data was distributed by:-
k-point (2-way); efficiency rating: Excellent (97%)                             
