 Job started on host DESKTOP-5CQNRD0
 at Fri Aug 23 16:13:43 2019

 +-------------------------------------------------+
 |                                                 |
 |      CCC   AA    SSS  TTTTT  EEEEE  PPPP        |
 |     C     A  A  S       T    E      P   P       |
 |     C     AAAA   SS     T    EEE    PPPP        |
 |     C     A  A     S    T    E      P           |
 |      CCC  A  A  SSS     T    EEEEE  P           |
 |                                                 |
 +-------------------------------------------------+
 |                                                 |
 | Materials Studio CASTEP version 2017            |
 | Ab Initio Total Energy Program                  |
 |                                                 |
 | Authors:                                        |
 | M. Segall, M. Probert, C. Pickard, P. Hasnip,   |
 | S. Clark, K. Refson, J. R. Yates, M. Payne      |
 |                                                 |
 | Contributors:                                   |
 | P. Lindan, P. Haynes, J. White, V. Milman,      |
 | N. Govind, M. Gibson, P. Tulip, V. Cocula,      |
 | B. Montanari, D. Quigley, M. Glover,            |
 | L. Bernasconi, A. Perlov, M. Plummer,           |
 | E. McNellis, J. Meyer, J. Gale, D. Jochym       |
 | J. Aarons, B. Walker, R. Gillen, D. Jones       |
 | T. Green, I. J. Bush, C. J. Armstrong,          |
 | E. J. Higgins, E. L. Brown, M. S. McFly         |
 |                                                 |
 | Copyright (c) 2000 - 2016                       |
 |                                                 |
 | Please cite                                     |
 |                                                 |
 |     "First principles methods using CASTEP"     |
 |                                                 |
 |         Zeitschrift fuer Kristallographie       |
 |           220(5-6) pp. 567-570 (2005)           |
 |                                                 |
 | S. J. Clark, M. D. Segall, C. J. Pickard,       |
 | P. J. Hasnip, M. J. Probert, K. Refson,         |
 | M. C. Payne                                     |
 |                                                 |
 |       in all publications arising from          |
 |              your use of CASTEP                 |
 |                                                 |
 +-------------------------------------------------+
 
 
 This version was compiled for x86_64-windows-msvc2008 on May 05 2016
 Intel(R) Math Kernel Library Version 11.1.2 
 Fundamental constants values: CODATA 2010
 
License checkout of MS_castep successful
 
Reading continuation data from model file Pd__1_1_0__DOS.check
 
 Atomic calculation performed for C: 1s2 2s2 2p2
 
 Converged in 54 iterations to an ae energy of -1027.632 eV
 
 Identity difference: 2.37E-04
 
   ============================================================                
   | Pseudopotential Report - Date of generation 23-08-2019   |                
   ------------------------------------------------------------                
   | Element: C Ionic charge:  4.00 Level of theory: PBE      |                
   | Atomic Solver: Koelling-Harmon                           |                
   |                                                          |                
   |               Reference Electronic Structure             |                
   |         Orbital         Occupation         Energy        |                
   |            2s              2.000           -0.505        |                
   |            2p              2.000           -0.194        |                
   |                                                          |                
   |                 Pseudopotential Definition               |                
   |        Beta     l      e      Rc     scheme   norm       |                
   |          1      0   -0.505   1.395     qc      0         |                
   |          2      0    0.250   1.395     qc      0         |                
   |          3      1   -0.194   1.395     qc      0         |                
   |          4      1    0.250   1.395     qc      0         |                
   |         loc     2    0.000   1.395     pn      0         |                
   |                                                          |                
   | Augmentation charge Rinner = 0.983                       |                
   | Partial core correction Rc = 0.983                       |                
   ------------------------------------------------------------                
   | "2|1.4|11|12|14.7|20UU:21UU(qc=7)[]"                     |                
   ------------------------------------------------------------                
   |      Author: Chris J. Pickard, Cambridge University      |                
   ============================================================                
 
 Doing a self consistent calculation for the test configuration
 
 Atomic calculation performed for C: 1s2 2s2 2p2
 
 Converged in 54 iterations to an ae energy of -1027.632 eV
 
 ---------------------------------------
 AE eigenvalue nl 10 =      -10.04653081
 AE eigenvalue nl 20 =       -0.50533429
 AE eigenvalue nl 21 =       -0.19423807
 ---------------------------------------
 PS eigenvalue nl 20 =       -0.50531853
 PS eigenvalue nl 21 =       -0.19422214
 ---------------------------------------
 Maximum eigenvalue error:   1.59E-05
 
 Derived cutoff energies: C=   6 M=  10 F=  12 E=  16
 
 
 ***************************************
 
 Atomic calculation performed for O: 1s2 2s2 2p4
 
 Converged in 61 iterations to an ae energy of -2040.902 eV
 
 Identity difference: 4.10E-04
 
   ============================================================                
   | Pseudopotential Report - Date of generation 23-08-2019   |                
   ------------------------------------------------------------                
   | Element: O Ionic charge:  6.00 Level of theory: PBE      |                
   | Atomic Solver: Koelling-Harmon                           |                
   |                                                          |                
   |               Reference Electronic Structure             |                
   |         Orbital         Occupation         Energy        |                
   |            2s              2.000           -0.881        |                
   |            2p              4.000           -0.332        |                
   |                                                          |                
   |                 Pseudopotential Definition               |                
   |        Beta     l      e      Rc     scheme   norm       |                
   |          1      0   -0.881   1.100     qc      0         |                
   |          2      0    0.250   1.100     qc      0         |                
   |          3      1   -0.332   1.100     qc      0         |                
   |          4      1    0.250   1.100     qc      0         |                
   |         loc     2    0.000   1.100     pn      0         |                
   |                                                          |                
   | Augmentation charge Rinner = 0.769                       |                
   | Partial core correction Rc = 0.769                       |                
   ------------------------------------------------------------                
   | "2|1.1|14|18|21|20UU:21UU(qc=7)[]"                       |                
   ------------------------------------------------------------                
   |      Author: Chris J. Pickard, Cambridge University      |                
   ============================================================                
 
 Doing a self consistent calculation for the test configuration
 
 Atomic calculation performed for O: 1s2 2s2 2p4
 
 Converged in 61 iterations to an ae energy of -2040.902 eV
 
 ---------------------------------------
 AE eigenvalue nl 10 =      -18.91475256
 AE eigenvalue nl 20 =       -0.88057101
 AE eigenvalue nl 21 =       -0.33186952
 ---------------------------------------
 PS eigenvalue nl 20 =       -0.88059206
 PS eigenvalue nl 21 =       -0.33182157
 ---------------------------------------
 Maximum eigenvalue error:   4.80E-05
 
 Derived cutoff energies: C=  14 M=  17 F=  20 E=  22
 
 
 ***************************************
 
 Atomic calculation performed for Pd:
 1s2 2s2 2p6 3s2 3p6 3d10 4s2 4p6 4d10 5s0.5
 
 Converged in 117 iterations to an ae energy of -137306.547 eV
 
 Identity difference: 4.15E-03
 
 Warning: ion_atom_descreen_psp: negative charge density encountered
   ============================================================                
   | Pseudopotential Report - Date of generation 23-08-2019   |                
   ------------------------------------------------------------                
   | Element: Pd Ionic charge: 18.00 Level of theory: PBE     |                
   | Atomic Solver: Koelling-Harmon                           |                
   |                                                          |                
   |               Reference Electronic Structure             |                
   |         Orbital         Occupation         Energy        |                
   |            4s              2.000           -3.024        |                
   |            4p              6.000           -1.769        |                
   |            4d             10.000           -0.035        |                
   |            5s              0.500           -0.024        |                
   |                                                          |                
   |                 Pseudopotential Definition               |                
   |        Beta     l      e      Rc     scheme   norm       |                
   |          1      0   -3.024   1.602     qc      0         |                
   |          2      0   -0.024   1.602     qc      0         |                
   |          3      0    0.250   1.602     qc      0         |                
   |          4      1   -1.769   1.602     qc      0         |                
   |          5      1    0.250   1.602     qc      0         |                
   |          6      2   -0.035   1.602     qc      0         |                
   |          7      2    0.250   1.602     qc      0         |                
   |         loc     3    0.000   1.602     pn      0         |                
   |                                                          |                
   | Augmentation charge Rinner = 1.120                       |                
   | Partial core correction Rc = 1.120                       |                
   ------------------------------------------------------------                
   | "3|1.6|15|18.8|20.6|40U:50UU:41UU:42UU{5s0.5}(qc=7)[]"   |                
   ------------------------------------------------------------                
   |      Author: Chris J. Pickard, Cambridge University      |                
   ============================================================                
 
 Doing a self consistent calculation for the test configuration
 
 Atomic calculation performed for Pd:
 1s2 2s2 2p6 3s2 3p6 3d10 4s2 4p6 4d10 5s0.5
 
 Converged in 117 iterations to an ae energy of -137306.547 eV
 
 ---------------------------------------
 AE eigenvalue nl 10 =     -887.98549682
 AE eigenvalue nl 20 =     -129.55227025
 AE eigenvalue nl 21 =     -116.13666558
 AE eigenvalue nl 30 =      -23.26518136
 AE eigenvalue nl 31 =      -18.85550066
 AE eigenvalue nl 32 =      -11.85263732
 AE eigenvalue nl 40 =       -3.02406957
 AE eigenvalue nl 41 =       -1.76878223
 AE eigenvalue nl 42 =       -0.03486337
 AE eigenvalue nl 50 =       -0.02425157
 ---------------------------------------
 PS eigenvalue nl 40 =       -3.02358228
 PS eigenvalue nl 41 =       -1.76830313
 PS eigenvalue nl 42 =       -0.03447713
 PS eigenvalue nl 50 =       -0.02390852
 ---------------------------------------
 Maximum eigenvalue error:   4.87E-04
 
 Derived cutoff energies: C=  14 M=  17 F=  20 E=  22
 
 
 ***************************************
 
 Pseudo atomic calculation performed for C 2s2 2p2
 
 Converged in 17 iterations to a total energy of -148.1084 eV
 
 
 Pseudo atomic calculation performed for O 2s2 2p4
 
 Converged in 21 iterations to a total energy of -425.8464 eV
 
 
 Pseudo atomic calculation performed for Pd 4s2 4p6 4d10 5s0.5
 
 Converged in 51 iterations to a total energy of -3466.6328 eV
 
Initialising basis set for model.
Reinitialising basis set for current geometry.
Continuing from previous run without ground state wavefunction.
Continuing from previous run without ground state density.
 Info: PDOS_CALCULATE_WEIGHTS modified from F to T
 Info: SPECTRAL_NBANDS modified from         71 to         55
 Info: SPECTRAL_EIGENVALUE_TOL modified from    0.1000000000000000E-05 eV to    0.1000000000000000E-04 eV
 Calculation parallelised over 2 processes.
 Data is distributed by k-point(2-way)

 ************************************ Title ************************************
 CASTEP calculation from Materials Studio

 ***************************** General Parameters ******************************
  
 output verbosity                               : normal  (1)
 continuing from                                : Pd__1_1_0__DOS.check
 write checkpoint data to                       : Pd__1_1_0__DOS.check
 type of calculation                            : Electronic Spectroscopy
 stress calculation                             : off
 density difference calculation                 : off
 electron localisation func (ELF) calculation   : off
 Hirshfeld analysis                             : off
 unlimited duration calculation
 timing information                             : on
 memory usage estimate                          : on
 write final potential to formatted file        : off
 write final density to formatted file          : off
 write BibTeX reference list                    : on
 write OTFG pseudopotential files               : on
 checkpoint writing                             : both castep_bin and check files
  
 output         length unit                     : A
 output           mass unit                     : amu
 output           time unit                     : ps
 output         charge unit                     : e
 output           spin unit                     : hbar/2
 output         energy unit                     : eV
 output          force unit                     : eV/A
 output       velocity unit                     : A/ps
 output       pressure unit                     : GPa
 output     inv_length unit                     : 1/A
 output      frequency unit                     : cm-1
 output force constant unit                     : eV/A**2
 output         volume unit                     : A**3
 output   IR intensity unit                     : (D/A)**2/amu
 output         dipole unit                     : D
 output         efield unit                     : eV/A/e
 output        entropy unit                     : J/mol/K
  
 wavefunctions paging                           : none
 random number generator seed                   :  155536849
 data distribution                              : optimal for this architecture
 optimization strategy                          : balance speed and memory

 *********************** Exchange-Correlation Parameters ***********************
  
 using functional                               : Perdew Burke Ernzerhof
 relativistic treatment                         : Koelling-Harmon
 DFT+D: Semi-empirical dispersion correction    : off

 ************************* Pseudopotential Parameters **************************
  
 pseudopotential representation                 : reciprocal space
 <beta|phi> representation                      : reciprocal space
 spin-orbit coupling                            : off

 **************************** Basis Set Parameters *****************************
  
 plane wave basis set cut-off                   :   300.0000   eV
 size of standard grid                          :     1.5000
 size of   fine   gmax                          :    13.3104   1/A
 largest prime factor in FFT                    :          5
 finite basis set correction                    : none

 **************************** Electronic Parameters ****************************
  
 number of  electrons                           :  64.00    
 net charge of system                           :  0.000    
 treating system as non-spin-polarized
 number of bands                                :         39

 ********************* Electronic Minimization Parameters **********************
  
 Method: Treating system as metallic with density mixing treatment of electrons,
         and number of  SD  steps               :          1
         and number of  CG  steps               :          4
  
 total energy / atom convergence tol.           : 0.1000E-04   eV
 eigen-energy convergence tolerance             : 0.1000E-05   eV
 max force / atom convergence tol.              : ignored
 convergence tolerance window                   :          3   cycles
 max. number of SCF cycles                      :        100
 number of fixed-spin iterations                :         10
 smearing scheme                                : Gaussian
 smearing width                                 : 0.1000       eV
 Fermi energy convergence tolerance             : 0.2721E-13   eV
 periodic dipole correction                     : NONE

 ************************** Density Mixing Parameters **************************
  
 density-mixing scheme                          : Pulay
 max. length of mixing history                  :         20
 charge density mixing amplitude                : 0.5000    
 cut-off energy for mixing                      :  300.0       eV
 charge density mixing g-vector                 :  1.500       1/A

 *********************** Population Analysis Parameters ************************
  
 Partial DOS weights calculated

 ********************* Electronic Spectroscopy Parameters **********************
  
 electronic spectroscopy with theory level      : DFT       
 spectroscopy calculation                       : band structure
 max. number of iterations                      :         60
 max. steps per iteration                       :          5
 number of bands / k-point                      :         55
 band convergence tolerance                     : 0.1000E-04   eV
 write orbitals file                            : off

 *******************************************************************************
  
 
                           -------------------------------
                                      Unit Cell
                           -------------------------------
        Real Lattice(A)                      Reciprocal Lattice(1/A)
   3.9629381   0.0000000   0.0000000        1.5854866   0.0000000   0.0000000
   0.0000000   2.8022204   0.0000000        0.0000000   2.2422167   0.0000000
   0.0000000   0.0000000  10.8022204        0.0000000   0.0000000   0.5816568
 
                       Lattice parameters(A)       Cell Angles
                    a =    3.962938          alpha =   90.000000
                    b =    2.802220          beta  =   90.000000
                    c =   10.802220          gamma =   90.000000
 
                       Current cell volume =  119.958936       A**3
 
                           -------------------------------
                                     Cell Contents
                           -------------------------------
                         Total number of ions in cell =    5
                      Total number of species in cell =    3
                        Max number of any one species =    3
 
            xxxxxxxxxxxxxxxxxxxxxxxxxxxxxxxxxxxxxxxxxxxxxxxxxxxxxxxxxxxx
            x  Element    Atom        Fractional coordinates of atoms  x
            x            Number           u          v          w      x
            x----------------------------------------------------------x
            x  C            1        -0.500000   0.000000   0.444244   x 
            x  O            1        -0.500000   0.000000   0.556092   x 
            x  Pd           1         0.500000   0.500000   0.000000   x 
            x  Pd           2        -0.500000  -0.500000   0.263375   x 
            x  Pd           3         0.000000   0.000000   0.129706   x 
            xxxxxxxxxxxxxxxxxxxxxxxxxxxxxxxxxxxxxxxxxxxxxxxxxxxxxxxxxxxx
 
 
                         No user defined ionic velocities
 
                           -------------------------------
                                   Details of Species
                           -------------------------------
 
                               Mass of species in AMU
                                    C   12.0109997
                                    O   15.9989996
                                    Pd  106.4000015
 
                          Electric Quadrupole Moment (Barn)
                                    C    0.0332700 Isotope 11
                                    O   -0.0255800 Isotope 17
                                    Pd    0.6600000 Isotope105
 
                          Files used for pseudopotentials:
                                    C 2|1.4|11|12|14.7|20UU:21UU(qc=7)[]
                                    O 2|1.1|14|18|21|20UU:21UU(qc=7)[]
                                    Pd 3|1.6|15|18.8|20.6|40U:50UU:41UU:42UU{5s0.5}(qc=7)[]
 
                           -------------------------------
                              k-Points For BZ Sampling
                           -------------------------------
                       MP grid size for SCF calculation is  3  4  1
                            with an offset of   0.000  0.000  0.000
                       Number of kpoints used =             4
 
                           -------------------------------
                               Symmetry and Constraints
                           -------------------------------
 
                      Maximum deviation from symmetry = 0.879949E-15     ANG
 
                      Number of symmetry operations   =           4
                      Number of ionic constraints     =           6
                      Point group of crystal =     6: C2v, mm2, 2 mm
                      Space group of crystal =    25: Pmm2, P 2 -2
 
             Set iprint > 1 for details on symmetry rotations/translations
 
                         Centre of mass is NOT constrained
             Set iprint > 1 for details of linear ionic constraints
 
                         Number of cell constraints= 6
                         Cell constraints are:  0 0 0 0 0 0
 
                         External pressure/stress (GPa)
                          0.00000   0.00000   0.00000
                                    0.00000   0.00000
                                              0.00000
  
+---------------- MEMORY AND SCRATCH DISK ESTIMATES PER PROCESS --------------+
|                                                     Memory          Disk    |
| Baseline code, static data and system overhead        0.0 MB         0.0 MB |
| BLAS internal memory storage                          0.0 MB         0.0 MB |
| Model and support data                               55.5 MB        21.2 MB |
| Electronic energy minimisation requirements           6.4 MB         0.0 MB |
| Force calculation requirements                        1.3 MB         0.0 MB |
|                                               ----------------------------- |
| Approx. total storage required per process           61.9 MB        21.2 MB |
|                                                                             |
| Requirements will fluctuate during execution and may exceed these estimates |
+-----------------------------------------------------------------------------+
------------------------------------------------------------------------ <-- SCF
SCF loop      Energy           Fermi           Energy gain       Timer   <-- SCF
                               energy          per atom          (sec)   <-- SCF
------------------------------------------------------------------------ <-- SCF
Initial  -1.09993301E+004  0.00000000E+000                        15.83  <-- SCF
      1  -1.09993040E+004  3.35581910E+000  -5.22328801E-003      16.05  <-- SCF
      2  -1.09993044E+004  3.35581583E+000   6.92340652E-005      16.33  <-- SCF
      3  -1.09993042E+004  3.35241732E+000  -3.22196500E-005      16.55  <-- SCF
      4  -1.09993043E+004  3.34883525E+000   1.93325922E-005      16.78  <-- SCF
      5  -1.09993042E+004  3.35023808E+000  -1.81619080E-005      16.98  <-- SCF
      6  -1.09993042E+004  3.35102150E+000  -3.54807837E-006      17.19  <-- SCF
      7  -1.09993042E+004  3.34972641E+000   3.39114186E-006      17.38  <-- SCF
------------------------------------------------------------------------ <-- SCF
 
Final energy, E             =  -10999.24847801     eV
Final free energy (E-TS)    =  -10999.30421204     eV
(energies not corrected for finite basis set)
 
NB est. 0K energy (E-0.5TS)      =  -10999.27634502     eV
 

Writing analysis data to Pd__1_1_0__DOS.castep_bin

Writing model to Pd__1_1_0__DOS.check
 
+---------------- MEMORY AND SCRATCH DISK ESTIMATES PER PROCESS --------------+
|                                                     Memory          Disk    |
|                                               ----------------------------- |
| Approx. total storage required per process           73.4 MB        21.2 MB |
|                                                                             |
| Requirements will fluctuate during execution and may exceed these estimates |
+-----------------------------------------------------------------------------+
 
  =====================================================================
  +                                                                   +
  +                 Calculation of Spectral Properties                +
  +                                                                   +
  + Calculation re-parallelised over 2 processes.                     +
  + Data distributed by G-vector(1-way), k-point(2-way), band(1-way)  +
  + Data distributed by k-point(2-way)                                +
  +                                                                   +
  =====================================================================
 
 Pseudo atomic calculation performed for C 2s2 2p2
 
 Converged in 17 iterations to a total energy of -148.1084 eV
 
 
 Pseudo atomic calculation performed for O 2s2 2p4
 
 Converged in 21 iterations to a total energy of -425.8464 eV
 
 
 Pseudo atomic calculation performed for Pd 4s2 4p6 4d10 5s0.5
 
 Converged in 51 iterations to a total energy of -3466.6328 eV
 
  Starting k-point:        1 of        3 on this process      |<-- SPEC
  Starting k-point:        2 of        3 on this process      |<-- SPEC
  Starting k-point:        3 of        3 on this process      |<-- SPEC
  Total time to compute matrix elements              3.75 sec |<-- SPEC
  
  + Calculation re-parallelised over 2 processes.                     +
  + Data distributed by k-point(2-way)                                +
 
 ***************** Symmetrised Forces *****************
 *                                                    *
 *            Cartesian components (eV/A)             *
 * -------------------------------------------------- *
 *                   x            y            z      *
 *                                                    *
 * C         1      0.00000      0.00000      1.77499 *
 * O         1      0.00000      0.00000     -0.67010 *
 * Pd        1      0.00000      0.00000      5.06587 *
 * Pd        2      0.00000      0.00000     -0.19122 *
 * Pd        3      0.00000      0.00000     -5.97955 *
 *                                                    *
 ******************************************************

Writing analysis data to Pd__1_1_0__DOS.castep_bin

Writing model to Pd__1_1_0__DOS.check
 
 A BibTeX formatted list of references used in this run has been written to 
 Pd__1_1_0__DOS.bib
 
Initialisation time =     14.83 s
Calculation time    =      6.97 s
Finalisation time   =      0.03 s
Total time          =     21.83 s
  
Overall parallel efficiency rating: Satisfactory (65%)                          
  
Data was distributed by:-
k-point (2-way); efficiency rating: Satisfactory (66%)                          
  
Parallel notes:
1) Calculation only took 21.9 s, so efficiency estimates may be inaccurate.     
