#BIOSYM hessian 1
@Type: Hessian Update
@Units
 distance: 	A
 energy: 	Kcal/Mol
#header
@natom 19

#label
L1      L2      L3      L4      L5      L6      L7      L8      L9      L10     L11     L12     L13     L14     L15     L16     L17     L18     L19

#element
Li Li Li Li Li Li Li Li Li Li Li Li Li Li Li Li Li Li Li

#matrix
57
 1.710983322596E+01
 -1.095037012893E+01 1.479361313081E+01
 3.447155708082E+00 -3.978487931646E+00 1.287710081981E+01
 -1.694775450697E+00 3.012366961992E+00 9.318303828170E-01 1.619188962769E+01
 4.625947314772E+00 -3.443406256249E+00 2.112881157178E-01 -2.448457674637E+00 1.214450972999E+01
 3.648806162661E+00 -1.924689717386E+00 -1.346731369620E-01 3.744510308903E+00 2.210026437245E+00 1.190584877606E+01
 -1.418139298568E-01 -7.580342901276E-01 -5.783027844449E-01 -2.476904453421E+00 8.188571828558E-01 6.658181663725E-01 1.205439459946E+01
 4.956766878270E-01 -6.466557507083E-01 8.389200311939E-01 2.707266197546E+00 9.550836981334E-01 3.873097133016E+00 -4.902669840922E+00 7.316756913178E+00
 1.894150875715E-01 2.204964657158E-01 -2.319458303286E+00 -2.988572765953E+00 -1.373873726207E+00 -9.663633884071E-01 1.417081717748E+00 -1.606314548359E+00 4.018939211470E+00
 -2.641728182689E-01 5.524781272138E-01 7.650898069442E-01 7.955696534059E-01 -2.647205373238E+00 -2.305508858115E+00 -4.548548433360E+00 -8.109359546550E-01 1.170202481728E+00 2.031420761863E+01
 -1.642255260958E+00 2.877714657759E-01 9.889314115742E-02 -1.446379530121E-01 -2.121683417192E+00 -2.833115190437E+00 1.397980120339E+00 -2.917807649633E+00 2.780550554021E-01 1.255327987768E+01 1.382657600214E+01
 -1.810186259782E+00 6.437386340140E-01 4.855672203526E-02 -2.262017200040E-01 -3.608511498252E-01 -8.990361476360E-01 7.505188894988E-01 -4.657045169349E-01 -2.375269180407E-01 5.265553472758E+00 7.084396190397E+00 6.566654516686E+00
 -5.397522584375E+00 1.420680891147E+00 1.541114793110E+00 1.547146841324E+00 3.656111547965E+00 7.824548570143E-01 -3.688847271853E+00 5.744737144047E+00 -2.476963972476E-01 2.301874070066E+00 -8.109593899098E-01 -1.279751057975E+00 2.029760611748E+01
 -2.652475025995E-02 -2.663556842248E+00 -3.357184645565E+00 -2.027669696427E+00 -7.374540156263E-01 -1.161335021066E+00 4.881027896245E+00 -5.124679201988E+00 1.332316408664E+00 2.596952231119E+00 3.054048070511E+00 1.369761022361E+00 -4.838060047461E+00 1.155805307631E+01
 -7.334881400175E-01 -2.045219318188E+00 -3.729152226608E+00 1.366902222204E-01 1.451585838561E+00 3.206931366728E-01 -2.588476994093E+00 3.164691544611E+00 -1.715031294781E+00 -1.766504642865E+00 -3.269904429017E-01 -1.110157693098E+00 6.305067302411E+00 -9.613407754858E-01 2.326737832721E+01
 4.434683606067E-01 1.116942166364E+00 1.157758833200E+00 -2.864219114254E-01 -9.050275626691E-01 7.538209713251E-01 5.887320324495E-01 -7.308856792884E-01 8.584137442212E-01 3.232145607803E+00 4.165867459344E-01 -1.583951486444E+00 -7.147918721308E-01 -9.689421508932E-01 -1.222790130886E-01 1.563255386752E+01
 6.283665402861E-01 -4.825410766503E-01 -9.128981222193E-02 1.794229708802E+00 -3.155301920264E-01 6.076658118262E-01 -5.299108374474E-01 1.416124282014E+00 -9.283047507726E-01 -1.631954720622E+00 -1.123343165546E+00 -1.147400961689E+00 1.648076822696E+00 -9.670687438672E-01 1.989947657402E+00 -4.418907086610E+00 4.677348664702E+00
 7.888904924601E-01 2.179137741265E+00 2.924043421344E-01 -8.416514431310E-01 -2.230256059716E+00 1.111983876793E+00 -2.930108538871E-01 3.479743664541E-02 2.110431222078E+00 2.530638944723E+00 3.724159921169E-02 -2.156303739247E+00 -1.801314246419E+00 -1.191446327202E+00 -3.549418261392E-01 8.439933202116E+00 -1.218329387934E+00 1.097189890642E+01
 -2.361644855264E+00 -2.320695801157E+00 -2.641404041329E+00 -4.901021883880E+00 1.106755511201E+00 -1.642793679062E-01 2.411470945494E+00 -6.096525851418E-01 1.398175168491E+00 -1.686445456126E+00 -1.529699481668E+00 -6.538253802795E-01 1.038411405669E+00 1.918013123764E+00 4.160969007259E-02 -1.355275780427E+00 2.491374574402E-01 -1.368630800664E+00 6.682195560262E+00
 1.312668019605E+00 -6.036327339471E-02 -6.911191415633E-01 1.126424252529E+00 -1.026672338440E+00 5.303017719246E-01 -9.066599179495E-01 -1.819201364966E-01 -3.361184239645E-01 -1.203375371980E+00 -8.437879602441E-01 -6.464527694983E-01 -1.381509465141E+00 3.521912529846E-01 5.257302514196E-01 -5.738787565632E-01 -3.935103463976E-01 -6.892331459203E-01 -1.945319505889E+00 2.771510757827E+00
 -2.388168510195E+00 -1.663956074697E+00 -4.226217733712E+00 -1.260639643434E+00 3.940418488136E-01 1.575616612968E+00 -5.757378841830E-01 2.290030519528E+00 5.121726611514E-01 9.611342884180E-01 -1.091398688294E+00 -1.023902601452E+00 2.839612271234E+00 -3.214085389440E-01 1.637802277992E+00 1.301559215480E+00 -8.773570279261E-02 -6.898505168808E-01 4.423543513676E+00 -7.203741604502E-01 8.631390887741E+00
 1.333554125773E+00 6.343159925041E-01 -2.319741525931E+00 -5.164473603116E-01 1.589727192490E-01 -1.234310289102E-01 2.154569254099E-01 -1.200896796937E+00 1.463677085370E+00 -1.172799615087E+00 -6.976804400966E-01 4.850520456958E-01 -4.048041679934E+00 -5.909131490034E-01 -1.111249259092E+00 6.758282722908E-01 1.124767802612E+00 7.142415094980E-01 6.858677934550E-01 -5.725557819243E-01 1.189876690059E+00 1.113566508554E+01
 1.973395007992E+00 4.309343418726E-01 1.138751453094E+00 1.382102853580E+00 -4.064352571349E+00 -5.175308385653E-01 -2.407820357071E-01 5.879303929389E-01 9.612313456313E-01 -6.767136797266E-01 -9.350414457291E-01 -7.644467000205E-01 4.261930385720E-01 -4.429461339978E+00 -3.356092611776E+00 -1.398823073579E+00 8.814852721597E-01 -7.716482375965E-01 -1.222637955634E+00 1.232044433989E-01 -3.243564957672E+00 -9.287633031142E+00 2.603202034471E+01
 2.446379649280E+00 -9.279922065502E-01 -5.341583999685E-01 -3.124377408320E+00 3.435675469556E+00 -2.326628250790E+00 2.282775778725E+00 -3.617974598055E+00 1.021891023508E+00 -2.017928011515E+00 -2.057902736294E-01 7.120848524994E-02 -4.984742561618E+00 -1.577664403593E+00 -4.329534758256E+00 7.140516948830E-01 2.281724848714E-01 -1.814778980055E+00 2.062896050970E+00 -2.005090698710E+00 7.896474724779E-01 4.929423266423E+00 2.111693432997E+00 1.283085197036E+01
 3.308204888953E+00 -2.598518141654E+00 -2.804309286177E+00 2.550050493255E+00 -4.276437342950E+00 1.815678920079E+00 -4.559060826421E+00 4.199091720562E-01 9.860389222560E-01 3.162464288449E+00 1.808756196124E+00 -8.221157900473E-01 -7.444015716589E-01 -7.736026908590E-01 4.516829869830E+00 -2.885970932478E+00 -2.394923557300E-01 -1.801539882866E+00 -2.996421563139E-01 1.590699771125E+00 5.749038213287E-01 -8.659569634691E-01 1.381944705152E+00 1.136583572899E-01 3.837403675292E+01
 -3.182685832104E+00 1.666534445089E+00 -9.026526009661E-01 -5.080540448735E+00 3.279344297402E+00 -6.201438340716E+00 -3.237624500634E+00 -8.907663461691E-01 2.279520849406E-01 2.301535278979E+00 -3.179865238229E-01 2.181069491761E+00 1.743734015816E-01 3.094189822479E+00 -2.508766690604E+00 -3.078374683790E+00 -1.994417589589E+00 -5.403834061741E+00 2.932051574515E+00 -2.910004623654E+00 -4.578909422966E-01 6.966633653598E-01 -3.028058652013E+00 4.643008773181E+00 5.959885559103E+00 2.583052708368E+01
 3.587123963891E-01 4.232087431607E-01 1.012901141412E-01 2.531574309316E-02 -1.836593944905E+00 -2.447800011536E+00 3.132685331096E+00 -9.700535668754E-01 2.083482631977E-01 3.405182695471E+00 6.266216932458E+00 4.992667203809E+00 -5.105126500444E-01 1.846415605394E+00 -1.689065196749E+00 -2.839895793027E+00 1.196963628733E+00 -1.936941431748E+00 -2.712376469074E+00 5.150838837476E-01 -1.713458788404E+00 7.656573795456E-01 2.244037952607E+00 8.005009706606E-02 -9.285566348888E+00 -6.626522309571E+00 1.738060334573E+01
 3.239933879301E+00 -1.339053249593E-01 2.705583981889E+00 -7.666181201986E-01 -7.166469302803E-01 3.376709590099E-01 -3.829081422588E-01 -1.132199175611E+00 -4.385903401652E+00 -8.797121471742E-02 1.266729522151E+00 2.021465605231E+00 -1.566942049327E+01 -1.538897417881E-01 -4.317425252990E+00 1.266213841643E+00 -1.856489396153E+00 -1.783328359294E-01 -2.066462330905E+00 2.476395073522E-01 -9.667817652849E-01 -1.839916623580E-01 -8.635770457976E-01 4.118283019719E+00 2.923255331829E+00 4.195788069216E+00 -1.543262507605E+00 2.475857388764E+01
 -9.734383837922E-01 2.035815999743E+00 -1.099982075729E+00 1.217262685185E+00 -3.847839179224E+00 -1.802313185249E-01 -1.094545250363E+00 6.585713567068E-01 1.199787693385E+00 -1.809803020213E+00 -1.725576414319E+00 3.273831883476E-01 -4.993031983925E-01 1.330804471119E-01 -8.223324940056E-02 4.278801007107E-01 -5.207319216623E-02 8.397443387572E-01 -1.566553105786E+00 1.699367691245E+00 -1.130157090925E+00 5.984477854856E+00 -7.414261586023E+00 -4.743152489083E+00 -1.090294959024E+00 -2.910010813097E+00 8.317846352889E-01 -3.623822275741E+00 1.183649921499E+01
 -9.565027298712E-01 1.468436892837E+00 -6.703743914361E-02 6.809609665639E-01 -3.880219224337E+00 -5.735239435967E-01 -1.176271816758E+00 9.589440395452E-02 -2.314783265640E-01 -2.135474532459E+00 -1.250579597920E+00 1.381746920732E+00 -3.514444364567E+00 6.218965973630E-01 -2.765136471285E+00 6.529228615316E-01 -1.732780910443E+00 -8.220138376098E-01 -1.505018401991E+00 1.873801417225E+00 -1.405392709836E+00 3.685928506236E+00 -4.804475453839E+00 -3.566878955377E+00 1.016827449326E+00 1.392774738146E-01 8.061992880103E-01 2.067294741179E+00 8.726250657204E+00 9.681324808959E+00
 5.662868741448E-01 -3.773128240020E+00 4.445350183800E-01 1.086829544017E+00 -1.381165599775E+00 -2.872179417980E+00 -1.371517803642E+00 -1.780132293239E-01 -8.507607352382E-01 7.443681079663E-01 3.212924870901E+00 8.213632080460E-01 6.287790996141E-01 -5.145554324629E-01 -1.314822968800E+00 -3.090390304105E+00 -4.050589257565E-01 -2.617645326433E+00 1.428047522970E+00 -9.483460128359E-01 1.313500777538E+00 -1.401861906569E+00 4.120528133381E-01 6.028116693909E-01 3.657627413738E-01 7.618379042882E-01 1.355382497353E-01 -2.770792843344E+00 -3.745436897952E+00 -1.179709567533E+00 2.435337878894E+01
 -8.453960306870E-01 -2.031554563082E+00 -8.922030576424E-01 -7.133465443720E-01 1.402947361811E+00 -9.466141631307E-01 8.199684968527E-03 -7.849609681370E-01 6.736250782163E-01 4.486743397893E-01 1.151354425718E+00 -1.098831474984E-01 1.415261160214E+00 8.578932719455E-01 1.590289101543E-01 -2.053496360976E+00 2.455310887284E-01 1.191178703097E-01 2.776580686585E+00 -8.229437088146E-01 9.717097660090E-01 1.016449560833E-01 -2.434834960824E+00 5.885602187944E-01 2.160329991772E+00 -4.106120995113E-01 -6.597993008398E-01 -3.771497205247E+00 -1.890444465814E+00 -1.951480860320E+00 6.785079690611E+00 6.270523190725E+00
 1.161329581381E-01 3.609359844467E-01 7.347374981481E-01 1.212666236616E+00 2.217055452878E+00 2.592153242769E+00 -3.105291061586E+00 1.381096981776E+00 -5.829846484526E-01 1.719075170744E+00 -1.079954503748E+00 -6.311083101603E-01 2.203942601627E+00 -6.599453371887E-02 1.153560639312E+00 -1.140773232131E-01 1.917901358615E-01 5.427010655100E-01 -1.733512894735E+00 1.511772773033E+00 -1.451038455926E+00 -3.101087602320E+00 2.526436920225E+00 -1.848101574400E+00 1.041275396564E+00 4.703195207836E-01 -5.163162770643E-01 -3.923055536681E-01 -2.363157008200E+00 -2.333839695593E+00 -9.053689453445E+00 -1.698904063572E-01 1.282198016001E+01
 -1.303882122054E+00 -3.009029309862E-01 9.986345833296E-01 -2.942399317226E+00 1.522562576448E+00 -1.483144238447E+00 -6.977785391140E-01 7.910054398879E-01 -4.167859235592E-01 -9.383426772125E-01 -2.567635525805E-01 2.258491716074E+00 2.636783546968E+00 1.228315592250E+00 -3.763761710232E-01 2.796860411379E-01 7.255887681789E-01 -1.098401458614E+00 -8.086934820226E-01 1.002415553303E-01 -3.591808177030E-01 1.303346810132E+00 -9.024109873797E-01 2.106444616368E-01 -1.881332027868E+01 -6.855937379206E+00 1.346390005418E+01 -4.011182105600E+00 3.035241623850E+00 2.001128860137E+00 -2.379549727523E+00 -1.372067863321E+00 -1.199393262003E+00 2.437029497334E+01
 1.540265507069E+00 -1.000695015336E+00 7.636923251882E-01 1.266056751502E+00 1.276586083117E+00 -6.244986408125E-01 -1.475059395099E+00 -2.167066979360E-01 -1.503038666056E+00 4.296851996764E-01 7.188140159989E-01 -3.272117380953E-01 -1.035453522456E+00 -9.966898692000E-01 -5.335822879345E-01 -6.767734373536E-01 1.327848176036E-02 -1.792666421727E+00 -9.417893762558E-01 9.114488639935E-01 -4.781150770918E-01 1.845935752095E-01 -1.403580714479E+00 7.701035097805E-01 1.654523265383E+00 9.015413450599E-01 -2.267566971543E+00 1.997619473609E+00 -7.766445023335E-01 -2.855879407800E-01 2.738399784604E+00 1.227872088767E+00 1.777570033905E+00 -3.866743751736E+00 4.321494801003E+00
 -3.142401480204E+00 4.806638242638E-02 -7.096796202656E-01 1.036370888366E+00 -1.506886711118E+00 -2.540265691319E-01 2.423168545879E+00 -1.689959070513E+00 -5.560616187285E-01 -3.701941746372E+00 -1.502062042289E+00 -9.164906938999E-01 -1.586110354228E+00 1.257749783750E+00 -5.653094987270E-01 1.861862511720E-03 -1.406372372630E+00 -3.055162092469E+00 2.445986285452E+00 7.268965154627E-01 1.104491728609E+00 -1.308418518922E+00 -2.804703980602E-01 2.011108349732E-01 9.399859793823E+00 4.729990124515E+00 -8.024160119806E+00 1.209950463686E+00 -6.374192104770E-01 1.102976901166E+00 7.027070204828E-01 1.171187378933E+00 5.538213039887E-01 -1.098868463352E+01 2.624864190876E+00 1.127853990599E+01
 -3.350559807553E-01 -1.652642816830E-01 1.512083311787E-01 8.428392377539E-02 2.110821084336E+00 -3.795536275516E-01 -1.806158111071E+00 1.172393487514E+00 -3.696776505408E-01 -1.160964709334E+00 -9.209463163331E-01 -7.000871847453E-01 6.061932139014E-01 -5.782346154520E-01 -5.954937879424E-01 -1.872623220810E+00 5.126205603441E-01 1.752926810629E+00 -5.545607699755E-01 1.056087398087E+00 -8.823842975383E-01 -2.479908004399E+00 -8.787795678988E-01 -2.179718769053E+00 2.474071687673E-01 -3.029546559026E+00 6.722608024775E-01 -8.253217026562E-01 -1.413134380159E+00 -1.792567596252E+00 -1.292069874406E+00 3.459002417876E+00 4.925852322045E+00 1.301558858953E+00 1.385240882011E+00 1.352560688448E-01 8.502363057619E+00
 1.992510724455E+00 4.243706892689E-01 2.136612463054E+00 5.180353661359E-01 -5.905250508817E-01 -2.309005251089E+00 -2.663886865478E+00 2.239725072955E-01 -2.258510280109E-01 1.556660073646E+00 -2.321516794313E-01 -4.638035443954E-01 -2.084995376658E+00 -2.031902974397E+00 -3.004330608948E+00 -6.753581223661E-01 1.426320583223E+00 2.771803063075E-01 -2.366685941330E+00 9.441266932699E-02 2.790436633122E-01 2.653467368511E+00 4.771497699997E-02 3.129948884741E+00 -5.086633456874E+00 2.851055704725E+00 3.014013910709E-01 2.433558950952E+00 -8.569920591734E-01 -1.454932607333E+00 7.048967837957E-01 -3.195983981466E+00 -8.193550363335E-01 -1.719760305551E-01 6.869324846702E-01 -2.279998584947E+00 -1.954239078773E+00 1.033330515451E+01
 8.045936278041E-01 8.149510468401E-01 1.070437794267E+00 3.003520908305E-01 8.976118334072E-01 -3.294293140158E+00 -7.151443280245E-01 1.274308482243E-01 -1.439280550538E-01 2.217555956587E-01 2.602975259388E-02 -1.175440630272E+00 -2.588173914443E-01 -1.021984951726E+00 -8.454857383335E-01 1.620443483615E+00 1.420756222712E-01 2.627625505694E+00 -2.749316212599E+00 8.695834762866E-01 1.240735820208E+00 -2.200221587472E-01 -2.453040143762E+00 3.909086404862E-01 -5.783760780634E+00 -1.080233145755E+00 1.222402457587E+00 2.912565602476E-02 -2.253197196244E+00 -3.034684363952E+00 2.130543009133E+00 -1.979014563478E+00 -2.740894213985E+00 1.368928078723E+00 -2.551755377044E-01 -1.728761014041E+00 1.972677297317E+00 9.131113870583E+00 1.619743513382E+01
 1.913278002102E+00 -5.413107669127E-01 -9.420155914399E-04 -1.045926279959E+00 -3.314617192325E+00 3.807046302724E+00 3.820054753804E-01 9.496163911844E-01 -8.597380812417E-01 -2.629382821762E+00 -1.849277778038E+00 3.494047485998E-01 2.842042293529E+00 8.247785427630E-02 3.604101024842E+00 -7.756110576652E+00 2.865021753630E+00 -9.843769405830E+00 -3.365193201795E+00 5.423166079649E+00 -1.358497892525E+00 -3.159405880262E+00 9.704410813881E+00 -3.289998802644E+00 5.026708283828E+00 -3.192291940965E+00 3.804294664877E+00 -1.352442422860E+00 3.999558813979E+00 2.925427867209E+00 -1.842788889579E+01 -9.908918398294E+00 1.070558564088E+01 1.012241423193E+00 7.113027383244E-01 3.088782818587E+00 -3.191972662973E+00 2.304611264318E+00 -3.990680111593E+00 4.921271988467E+01
 -1.134318228001E+00 1.296959299047E+00 -2.951656840679E+00 -6.473169550374E+00 1.295488409345E+00 8.710079252187E+00 3.099614812835E+00 1.699171240509E+00 2.070535754476E+00 1.094193008469E-01 -1.025667017036E-01 1.697704082849E+00 -7.810549452708E-01 -1.567834316219E-01 2.434082759966E+00 1.156725834031E+01 -6.684736574761E+00 4.975347856780E+00 2.036173753820E+00 -4.591976090932E-01 4.384457262763E+00 1.123795494200E-01 -4.349933399108E+00 -1.879345490874E-01 2.248392896747E+00 -3.075889900352E+00 -7.528972671112E-01 3.861677974496E+00 5.737338173306E-01 1.704236542604E+00 -8.232860383319E+00 -2.398258140946E+00 9.317791890268E-01 3.725818862560E+00 -3.394005628082E+00 1.083968250995E-01 -1.217770545420E+00 -7.410452363141E+00 -4.484302669238E+00 2.485451062910E-01 3.118088727256E+01
 1.229826904688E+00 -3.009487093643E+00 3.563579996518E-02 7.485829690310E-01 -3.990164924597E-01 -3.522733153012E+00 -1.481395404935E+00 6.324812612696E-01 -1.007817176388E+00 -9.740882909933E-01 1.519065452543E-02 4.020546281270E-01 4.721051329273E+00 -1.456079495337E+00 5.682342753332E+00 -1.206290143891E+01 3.921828442109E+00 -7.892389820559E+00 3.118392898194E+00 -1.509286795251E+00 -2.935558380373E+00 -1.490025538416E+00 4.983002535920E+00 -2.772024139439E+00 5.364154194263E+00 3.115142421384E-01 -3.446138610782E-01 -4.736636153692E+00 3.379869476084E+00 2.014993327028E+00 9.044289028279E+00 3.836413072621E+00 -8.300424151845E+00 -3.091832614936E-01 -1.458122874397E-03 -1.639805874995E+00 -3.367112798083E+00 -7.657485413716E+00 -1.282533346773E+01 -2.386331005743E+00 -1.231780356015E+01 3.850652346469E+01
 -1.300752506049E+01 1.267985758710E+01 -1.665719120795E+00 5.449976093615E+00 5.097334373594E-01 -2.091647627341E+00 3.653774427424E-02 2.386796773230E+00 3.656245710255E-02 -1.658404287135E+01 -1.335780160091E+01 -5.485452769703E+00 2.298860679494E+00 -3.305168625769E+00 1.459050638117E+00 -3.627397479738E+00 2.758475707773E+00 3.176823770840E+00 1.479925483427E+00 -4.158032217398E+00 -4.666677517828E+00 -1.252994748509E+00 2.759506439983E+00 4.358232230970E-01 -1.285437873552E+01 9.960497224515E+00 -8.170802979010E+00 -2.967866964639E+00 -5.080180327175E-01 -2.735262723816E+00 1.004864251024E+00 5.884010788193E-01 -2.804731494273E+00 1.843976964695E-01 -3.726584798526E+00 -4.838413127608E-01 1.264132210648E+00 6.655858102720E-01 7.515119396346E-01 -1.903832043439E+01 -7.371741144154E+00 5.660952220367E+00 5.935762481578E+01
 8.945821629292E+00 -6.737408519075E+00 4.136907112275E+00 -1.832777686248E+00 6.065478486798E+00 2.350603959871E+00 6.167908877202E+00 -2.434876356057E+00 -1.536615538706E+00 -9.353608637104E+00 -4.375396405170E+00 -4.015343901020E+00 -2.621505917420E+00 -4.665648064005E-01 2.772599729612E+00 2.498493671148E-02 1.492281333438E-02 -2.469450497106E-01 7.448778300943E-02 1.891336080259E-01 -3.668423229035E+00 -7.096612308375E-01 -1.261531620754E+00 1.530432481482E+00 1.597018263800E+00 -5.176655232857E+00 -3.529752555662E+00 2.273441463134E+00 -1.152668617328E+00 -9.633052454924E-01 2.846998245915E+00 1.319200731682E+00 -4.145972462943E+00 -3.349564482050E+00 1.113673360126E+00 1.077212272761E+00 -4.885438117025E-01 -3.972886546413E+00 -2.087613045494E+00 -4.554807658861E+00 3.156653508393E-02 9.200919743474E+00 1.010823081892E+00 1.887771821701E+01
 -2.522503124955E+00 3.550386430395E+00 1.391881161314E+00 3.099176374718E+00 7.613406310891E-01 1.409174898187E+00 2.061499183998E+00 -2.560047063892E+00 -1.007951389978E-01 -5.380365442121E+00 -3.960062300969E+00 6.644296629863E-01 -6.081825351342E+00 4.061820026518E+00 -1.479424857474E+01 -1.782297858791E+00 -1.776963864534E+00 -1.180692999921E+00 -6.475022406535E-01 -1.389100450997E-01 -4.561426677193E+00 -1.425593151238E+00 2.791346976016E+00 1.910449569999E+00 -3.111547704717E+00 8.508380028458E+00 -3.057091805896E+00 2.943301805228E+00 -1.429063510302E+00 2.163330077204E+00 1.256224955761E-01 -6.739682174326E-01 1.432298434777E+00 -1.031975433435E+00 -6.080393492227E-01 4.042446891740E+00 1.577375856045E+00 2.089827737502E+00 2.203240802567E+00 -3.683826294874E+00 -3.092952264947E+00 -8.802150670235E+00 1.407642104566E+01 -2.401731018957E+00 2.307767671343E+01
 -1.020365622717E+00 9.001076179217E-01 -2.690264648958E+00 -6.787483491602E+00 -2.265620606895E+00 -2.977265416026E+00 -3.302823121932E-01 -2.504016088429E+00 2.540285947009E+00 -4.775358472476E-01 -3.569272256723E-01 -1.437779877669E+00 -1.332141147368E+00 2.345631973147E+00 -9.674769443048E-01 -1.134082385783E-01 -1.448768079753E-01 2.047135955964E+00 1.148242956717E+00 9.042947701710E-01 -5.620690641545E-02 8.743133692416E-01 -1.401621180991E+00 4.507999651439E-01 4.295065929441E+00 1.305992990124E+00 -5.263719145315E-01 -1.983470698719E+00 1.304550770491E+00 9.544425550293E-01 -1.437563199218E+00 1.045020346522E+00 6.802207087989E-01 6.049063790247E-01 -4.997836442835E-01 6.411434616707E-01 2.088908392086E+00 -2.466809234841E-01 9.695110172015E-01 2.173618999324E+00 1.196534819032E+00 -3.457889799660E+00 -2.841638052148E+00 -1.854885468511E+00 2.850968494192E-01 7.905129888268E+00
 1.095834153499E+00 -5.417155371182E+00 4.591300823444E+00 -5.071050342421E-01 -9.290306398859E-01 -1.778715205183E+00 -7.012575997608E-01 3.079108018461E+00 2.164381607835E-01 3.572212087944E-01 -2.907140092951E+00 -4.548511048642E-01 1.389403225054E+00 -1.701976951979E+00 8.013169985438E-01 2.224084889295E+00 -6.356315291720E-01 4.086073389537E-01 2.542456929156E+00 -1.790393177468E+00 3.347414532053E+00 -4.713791725492E-01 1.023219181274E+00 -7.927455042986E-01 -2.766055228078E+00 3.306887370044E+00 -1.509421127427E+00 8.612201555292E-01 -2.039624564661E-02 5.267537773818E-02 -2.061192698147E+00 -8.314777194185E-01 1.172892530989E+00 -1.540874124762E+00 -8.631020212687E-01 1.219069480294E+00 -7.912495483011E-01 1.871843226717E+00 5.802373602650E-01 -4.597434282326E-01 -6.187513945211E-01 -1.324119298665E+00 -1.318177691242E-01 -2.056200243831E+00 -2.024334415043E+00 -3.205342855250E+00 1.387817090115E+01
 6.618555291590E-01 4.035931594276E+00 -3.790343309063E+00 -2.881640348553E+00 5.791319799747E-01 -2.018553059075E+00 2.017219347135E+00 1.924851872747E-01 1.165948453828E-01 -5.171849543244E-01 -2.218291823910E+00 -4.449824568639E+00 1.912955949616E+00 -1.250571757582E+00 -1.077423020695E+00 1.304557489301E+00 1.745406211362E+00 1.957842983193E+00 3.499604261487E-01 -5.218292574750E-01 1.985163134700E+00 -5.216235913025E-02 1.041173194114E+00 3.036465240620E-01 -5.495355013268E+00 -6.655130201933E-01 2.411764698492E+00 9.188606991792E-01 -1.023930053558E+00 -2.033711674384E+00 1.818259043642E-01 -1.353554952803E+00 -1.616844428860E+00 -5.761851900357E-01 6.300019363392E-01 -3.429405054296E+00 -1.596809918410E+00 1.056036168902E+00 8.247452097347E-01 -9.276642312846E-01 -1.731961994071E+00 2.055116934523E+00 2.377749128887E+00 2.505574545332E+00 -6.253924156965E+00 7.797568133670E-01 -1.781073682404E+00 1.841269796908E+01
 -6.373559697553E-01 -1.048060068320E+00 8.604422744754E-01 -4.268149304970E+00 3.623352103640E+00 -1.308818417234E+00 7.573021165769E-01 -9.937967372148E-01 4.090340557329E-01 2.864457189127E-01 1.332537761343E+00 1.036147401332E+00 -7.029339151149E-01 7.353151684304E-01 -7.507159091776E-01 -2.485977221835E-01 -2.273730104638E+00 -3.514991032255E-01 3.580695737206E-01 5.274504094047E-03 4.353660804285E-02 -1.770118746835E+00 -3.012994835132E+00 1.291467520253E-01 -5.429987744234E+00 1.940501393941E+00 -3.928322497585E+00 1.696696910114E+00 -2.720887235124E-01 -1.439893117381E+00 -4.948033066232E-01 -1.013700931881E-01 8.187645030794E-01 -6.707851047870E-01 1.941399171440E+00 6.901032517189E-01 1.376820917637E+00 1.240224284613E+00 1.569350917513E+00 1.169133383091E+00 1.386906144190E+00 -1.299299450351E+00 1.552029054943E+00 1.040123726956E+00 1.320677280310E-01 5.363291197638E-01 9.074938979430E-02 -2.205377869248E+00 1.216622700928E+01
 1.326293393993E+00 -4.071683741828E-01 1.866243264579E-01 5.294464957779E+00 -5.976068326731E+00 3.278285769497E-01 3.740919751452E-01 1.546933301937E+00 -7.792253934011E-01 5.173725276229E-01 1.249217103901E+00 3.464383600326E-01 -1.763060692837E+00 -1.100575964218E-01 1.758262279607E-01 -3.670910378590E-01 3.296530652859E+00 9.150974182368E-01 -1.568357910900E+00 9.255726507510E-02 -8.090993302594E-01 9.510267232066E-01 3.547284565644E+00 -1.143753294648E+00 4.267293265524E+00 -5.284898159620E+00 5.085253318506E+00 1.099189895346E-01 1.846763536773E+00 1.262230868668E+00 7.810942658882E-01 -2.695337243607E-01 -2.736624672518E+00 1.837405621772E+00 -9.062621169266E-01 -6.416266123621E-01 2.502185082123E-01 -1.015094529424E+00 -5.890137877940E-01 -2.607324343081E-01 -2.882027893438E+00 2.768741388982E+00 -1.562690301106E+00 -1.486330444121E+00 -1.687703700609E+00 -3.611175849538E-01 -9.461634550234E-02 8.691518219147E-01 -7.025414296299E+00 1.134063987273E+01
 -8.637124862482E-01 -1.865726763753E+00 9.417928251823E-02 -2.347081617236E+00 2.187099131039E+00 -6.908516408428E-01 -5.368230583832E-01 2.479356732776E-01 -1.128255110593E+00 1.446633741731E+00 7.136265128092E-01 -5.499223618324E-02 1.176999273416E+00 8.048543047136E-01 -3.339478542411E-01 2.737061843533E+00 -2.699484499351E-01 2.333885627933E-02 2.371419258700E+00 -7.431726799537E-01 1.832082375713E+00 -2.004821665000E+00 -2.096588571259E-02 -4.599409553649E-01 -5.384500985226E+00 1.727327947405E+00 -7.608788018707E+00 -3.204730867252E-01 -4.089405687451E-01 -1.329462042632E+00 2.456882250742E-01 -7.236246288196E-01 -1.441988732976E+00 -1.403042693315E+00 2.076788123174E+00 3.396593778917E+00 -4.537659094367E-01 1.260361410846E+00 1.621496547173E+00 3.197375391460E-01 -1.454359693185E+00 4.129046361074E-01 -6.032185386904E-01 -7.287991316498E-01 9.232534022027E-01 -8.571498451305E-02 6.978586080321E-01 -2.244709145967E+00 7.575991849712E+00 -2.626575830069E+00 1.472327501108E+01
 -4.491069776303E-01 1.511335787381E+00 1.407599390928E+00 -6.696581300875E-01 -7.457563887391E-01 -1.123073448770E-01 2.505369460853E-01 -4.458887297987E-01 2.377404746846E-01 6.298815667350E-01 -3.474444134809E-02 -3.864969152320E-02 1.176346467865E-01 -2.301466397344E-01 1.459734328728E+00 1.418544973124E+00 -1.598684232717E+00 -5.807128005991E-01 -1.535148181560E-01 -4.062781140559E-01 -1.262304409536E+00 9.651533236876E-02 -7.220857317887E-01 -1.286991709020E-01 -1.655585552678E+00 3.206631755974E+00 9.704874885468E-03 -2.182582376211E-01 -5.257809230845E-01 -1.709007139676E-01 2.419047250185E+00 -6.952528240911E-02 -7.960585376737E-01 -1.051327384499E+00 5.833877756617E-01 9.569947817441E-01 -1.852155168242E+00 -1.606726452502E-01 -4.018792739210E-01 -2.340634850776E+00 3.638184096428E+00 -4.975723376345E-02 3.110777382066E+00 9.907498989037E-01 -6.486058076708E-01 -1.422057657345E+00 4.599404997152E-01 1.849858834189E+00 -1.600040211620E+00 -8.344181046287E-01 -2.622810008043E+00 7.100362360726E+00
 -2.619057862245E+00 5.041568114792E-01 -1.089046563099E+00 3.744338389942E+00 -2.956378204756E+00 -1.552664660368E+00 -1.110016974722E+00 -1.469269347395E+00 6.786239696962E-01 -2.188828603814E+00 -1.353296914785E+00 -1.922670080721E+00 -1.459906971402E+00 -2.659301955983E-02 -8.001963806378E-01 -9.965087421981E-01 5.263714983576E-01 1.681232467068E+00 -1.449915577585E+00 1.584722967575E+00 1.250526100581E+00 4.080061631228E-01 -5.258716325899E-01 -6.512478329709E-02 1.133941337134E+00 -7.853900395285E+00 1.946668902960E+00 -4.425820013062E-01 1.527801899206E+00 1.192924199403E+00 7.428676704976E-01 1.192169691371E+00 5.170001094251E-01 3.030456177557E+00 -1.275742556317E+00 -2.649160518327E+00 1.959324981294E+00 5.852645295808E-01 1.311241817852E+00 -8.086198455186E-01 -4.697147053640E+00 -8.417659194266E-01 1.101114413117E+00 -9.244771526598E-01 -4.663859246872E-01 1.865109720837E+00 -1.072259600635E+00 -2.284715341088E+00 8.579688335880E-01 -3.609924979431E-01 -3.723532832400E+00 -6.200397831664E+00 1.527122773882E+01
 -1.686708653496E+00 1.109809621220E+00 -1.642561781580E-01 3.413879640477E+00 -1.651272817668E+00 -1.855208194372E+00 -6.777359126594E-01 -9.921199836696E-01 -1.101468138768E-01 -1.077054477074E+00 -3.473521773673E-01 -6.471381000060E-01 -1.346940544425E+00 -2.055474126786E-01 1.804299106679E-01 -2.197140401337E+00 -8.425258586997E-01 -8.009289214578E-01 -2.100690820531E+00 1.277060193400E+00 -3.211907808124E-01 -1.114987213597E+00 -2.159437983481E-02 -5.080444919950E-01 3.253700754858E+00 -1.963356012063E+00 2.686483902334E+00 2.294199371492E+00 -3.140390632075E-01 8.072633950480E-01 1.433391574167E+00 8.160228694613E-01 1.610953211606E+00 -6.381870978949E-01 -1.850908742009E-02 -1.297884277555E+00 1.101834339849E+00 -3.676194523183E-01 -3.610178723208E-01 -2.502066813807E-01 -2.833516768771E+00 8.611069200981E-01 1.485930286362E+00 6.587305796304E-01 -7.417867972508E-01 -4.138113679477E-01 2.207502870957E-01 4.762787711936E-01 -2.968314431608E-01 -1.355509908370E+00 -7.232232946649E+00 -1.174236045762E+00 8.754843853025E+00 9.205576036834E+00