#BIOSYM hessian 1
@Type: Hessian Update
@Units
 distance: 	A
 energy: 	Kcal/Mol
#header
@natom 9

#label
L1      L2      L3      L4      L5      L6      L7      L8      L9

#element
Li Li Li Li Li Li Li Li Li

#matrix
27
 3.038022929901E+01
 -1.052087927061E+01 4.454374683291E+01
 9.823183918994E+00 2.709281966751E+01 5.401187741596E+01
 -3.376428254159E+00 -2.391211548900E-01 1.740646626968E-01 2.366614727419E+01
 3.410009391394E+00 -5.595542327333E+00 1.038001541441E+00 1.027305604236E+01 1.388855203148E+01
 -6.685997918586E+00 2.681629364909E+00 -1.322474713209E-01 -1.384609412158E+01 -1.120602778981E+01 2.539562952354E+01
 -1.361619284935E+01 -8.432610127212E+00 -1.618511214690E+01 -2.758840199690E+00 3.453733008155E+00 4.345696259163E+00 8.255132183743E+01
 1.951367945736E+01 -1.200763151615E+01 1.198583097382E+01 -5.953887484873E+00 -4.218728079815E-02 -5.245760408890E+00 -5.445469940878E+01 6.654728160696E+01
 -1.042826062802E+01 -1.616847802938E+01 -2.067806960333E+01 5.889830713618E+00 7.500998665330E-01 4.533602878350E+00 9.290538498296E+01 -7.310814703494E+01 1.416011160304E+02
 -1.284945315810E+01 4.917607013245E+00 -8.962767589905E+00 -9.790707547468E-01 -3.038108666158E+00 3.011094857129E+00 7.182674954652E+00 -7.665870722151E+00 7.087648413284E+00 1.859905732332E+01
 -3.164848890414E+00 4.246378978813E+00 4.323127844654E+00 1.001814948314E+00 -4.009548861993E+00 -3.115443534488E-01 -1.023227159920E+01 5.213960722783E+00 -1.227305994567E+01 -1.175097692968E+01 5.116650844960E+01
 -5.962640586438E+00 4.712747247690E+00 -8.760782591575E+00 -2.287414863389E+00 -4.446031253254E-01 6.926357185159E-01 -1.449771525257E+00 -1.934892367899E+00 -3.154600016765E+00 2.854536495046E+00 9.720556478790E-01 2.288855815490E+01
 5.352040663320E+00 -6.586051375461E+00 -4.086201009570E+00 -3.172809995303E+00 1.044633576334E+00 -4.691108555100E+00 9.776907643467E+00 -1.996125220396E+00 8.374575906639E+00 -2.463663171444E+00 -5.440003789109E+00 -3.362665557991E+00 5.075800529896E+01
 5.480435008491E-02 -2.244978311440E+00 1.055673066306E+00 4.690543646571E-01 5.193323506505E-02 7.923738500562E-01 -4.147402449706E+00 5.061365298205E+00 -5.168079138989E+00 -2.473294448406E+00 -7.976616264756E+00 2.706562768315E-01 1.012952742764E+01 1.293189688904E+01
 9.544843243766E-01 6.726280751251E+00 3.364929072896E+00 -2.366572272966E+00 -1.230086693439E+00 -9.997865508287E+00 -2.220954360812E+00 1.693115312819E+00 -3.124124225496E+00 -1.642093106212E+00 -7.439089569419E-01 -3.578072381315E-01 1.632539919884E+00 8.483379474500E-01 2.365158603899E+01
 5.937019477501E+00 -1.214646405110E+00 2.707599336697E+00 -1.074602984453E+00 4.607682860315E+00 -2.263336689069E+00 -1.323747452379E+01 1.030122672568E+01 -1.940905444226E+01 -4.155194672702E+00 -6.625490537093E-01 2.411299153745E+00 -3.906824405262E+00 4.416121696138E+00 9.934998755473E-01 1.585468678144E+01
 6.727594771234E+00 -8.886103771316E+00 -2.006004865294E+00 -1.582270962979E+00 3.639532503907E+00 8.721502579398E-01 3.048483673358E+01 -2.237330186905E+01 4.241698849160E+01 1.914001809024E+00 -7.447370856535E+00 -1.324539082445E+00 1.193907160455E+01 -3.081113682409E+00 -5.835750104749E+00 -1.857569185452E+01 1.005488183014E+02
 1.217340062988E+01 -5.264786059383E+00 3.301827835622E+00 -5.796884661995E-01 2.139513473570E+00 -3.690637910112E+00 -8.862412577440E+00 3.604325274657E+00 -1.178169725831E+01 -3.448934447598E+00 -5.040555635948E+00 -4.287714600405E-01 -3.630410409915E-01 5.533635420800E-01 -1.354441050306E+00 3.340328067516E+00 1.986572148683E+01 3.602236087404E+01
 1.507219432563E+01 -1.050322094126E+01 -2.297070005027E+00 -9.500666971161E+00 -1.950308615810E+00 -3.359097141194E+00 -8.449854506488E+01 6.954605064657E+01 -1.134524785249E+02 -2.082809488299E+00 4.195908971402E+00 -6.898583561333E+00 -2.591617622626E+00 -2.548261041267E+00 -7.691085365732E+00 9.926697411216E+00 -1.328326502218E+01 -4.344595032305E+00 2.563104548817E+02
 1.312391885462E+00 1.057115707385E+00 -5.536984952205E+00 -3.221461818564E+00 -5.460580022262E+00 1.525930804736E+00 -3.529348401497E+01 1.893065033980E+01 -3.986295757075E+01 5.111163351103E+00 2.850764943490E+00 -8.023367927116E-01 -4.940593109991E+00 -1.754485988852E+00 -2.969892871390E+00 -1.113608386756E-01 -7.284129920142E+00 -3.322826656232E+00 9.514265614201E+01 4.603502437247E+01
 4.906952941901E+00 4.194072402564E+00 5.641753724065E+00 1.631868534334E+00 2.849710731156E+00 -3.340919263808E+00 7.993643369750E+00 -7.961656729099E-01 4.394868410359E+00 -2.522133557521E+00 -1.654001486826E+00 -2.272743807788E+00 6.703098734333E+00 1.994127644577E+00 1.167547018186E+00 -1.539707787910E+00 9.126719512267E+00 -3.954903664495E-02 -2.613919759842E+01 -1.390611615452E+01 2.394092849903E+01
 1.631240543324E+00 2.067716239131E+00 3.891057077003E-01 -1.283142897858E+00 -8.109017608554E-02 -6.547372943191E-01 1.354509736849E+00 -4.703979666594E-01 -1.051583358208E+00 -6.777248952985E+00 5.039213381030E+00 6.872919926800E+00 -2.594305208098E+01 -5.513284731254E+00 1.248148786199E+01 2.855805502975E+00 -1.291743307429E+01 -2.137230137811E-01 -1.898647730768E+01 -6.338507893255E+00 -1.193549087634E+01 4.061038559608E+01
 7.945761350261E+00 -2.143342007210E+00 2.525031952798E+00 -7.171865833163E-01 8.337078566825E-01 -1.512386104959E+00 -7.488560332141E+00 8.159511540390E+00 -9.325789578445E+00 2.751410987290E+00 -1.369957120174E+01 -1.148248265201E+01 -9.400540723367E+00 -3.353646272075E+00 4.411200821908E+00 4.737507206700E+00 -1.605550816236E+01 1.799352307045E+01 -3.765591625906E+00 -3.199484306420E+00 -4.645864568992E+00 7.768050364230E+00 3.630807724192E+01
 2.647344248870E+00 -1.428786013011E+01 -1.103900269747E+01 1.383406950664E+00 4.263744924944E+00 -2.771769892508E+00 3.121525137399E+01 -1.915610115326E+01 3.784461033113E+01 7.386400318200E+00 -1.500482494058E+01 -1.071104047091E+01 1.640791132703E+01 -2.094087552157E+00 -7.473915395708E+00 -4.481173056440E+00 2.101789824567E+01 -3.774531362258E+00 -2.079173227905E+01 -9.741401793081E+00 -2.455849594806E+00 -1.079816473567E+01 -2.574575188988E+00 5.739563928411E+01
 -2.853065004719E+01 3.051120602217E+01 1.843719712531E+01 -1.520585216818E+00 -1.771960742051E+01 2.414358060355E+01 1.324563846530E+01 -2.881997602675E+01 3.008393693690E+01 3.525707920303E+00 2.101371296137E+01 7.822320518817E+00 -2.780898633013E+01 -3.872651678925E-01 -2.141306876076E+00 -1.220011258692E+01 -4.706844004425E+00 2.298665880914E+00 -1.636492301639E+02 -5.166080370312E+01 2.090096623987E+01 6.537979860272E+00 -1.830850643751E+00 -2.296924414760E+01 2.104002380991E+02
 -2.527851304477E+01 -1.896964358566E+01 -4.047749522903E+01 -2.999735071064E-02 -3.305867134748E+00 1.240363437946E+01 8.611045819027E+01 -6.948964884213E+01 1.127394229400E+02 1.023406760574E+01 -3.034450590966E+01 1.003339484799E+01 5.250081609792E+00 3.656450972179E-01 -2.899296206908E+00 -3.498290336820E+00 -3.906082254345E+01 -3.052827849602E+01 -1.368339685136E+02 -5.117487512547E+01 2.837517592685E+00 1.044573385715E+01 -6.849744689191E+00 3.757720758756E+01 5.360042798291E+01 2.188294627331E+02
 -7.428466930981E+00 -9.686425215058E+00 -2.571028568486E+01 1.000059886282E+01 1.839647070928E+00 -1.068842807437E+01 -1.077417253755E+02 8.295779507661E+01 -1.496357065463E+02 -3.763751382422E+00 2.973271182688E+01 2.104551711798E+00 -2.061510972423E+01 1.747634363845E+00 -5.875908712148E+00 1.824054554217E+01 -8.413318394181E+01 -1.825456063199E+01 1.849738395080E+02 7.461658598615E+01 -2.703603594860E+01 4.910185781825E+00 4.611342248240E+00 -5.701414020158E+01 -7.857611628169E+01 -1.016861074158E+02 2.921105140881E+02

