#BIOSYM hessian 1
@Type: Hessian Update
@Units
 distance: 	A
 energy: 	Kcal/Mol
#header
@natom 19

#label
L1      L2      L3      L4      L5      L6      L7      L8      L9      L10     L11     L12     L13     L14     L15     L16     L17     L18     L19

#element
Li Li Li Li Li Li Li Li Li Li Li Li Li Li Li Li Li Li Li

#matrix
57
 2.730337878188E+01
 1.448668562798E+00 2.483340959988E+01
 1.068066138755E+01 3.650382730732E-01 3.395492675760E+01
 -4.302677756864E+00 6.393608287367E+00 2.421990365503E-01 3.339429157878E+01
 5.823935432341E+00 -1.051153755808E+01 -3.876133230910E-01 2.382953495197E+00 3.368402381093E+01
 -1.411890615364E+00 -5.480587276325E-01 -2.167909891470E+00 -4.755145017204E+00 5.675910965013E+00 2.463057458400E+01
 -2.657439170879E+00 1.233323734158E+00 4.637168424331E+00 -3.353546484474E-01 9.650185965900E-01 -1.202883489881E+00 1.004296860008E+01
 -9.824587731674E-01 -4.084371548216E+00 -6.301920306445E-01 -2.724162698535E-01 1.481267242655E-01 3.667600522623E+00 6.207473967502E+00 3.234350105902E+01
 2.061348081677E+00 -3.953010571122E+00 -2.655141540898E+00 5.519928783859E-01 8.960555095608E-01 3.169619122793E+00 -3.126499286343E+00 5.285152394372E+00 1.488344961497E+01
 -9.016287855785E+00 -1.068092603051E+01 1.992904218623E+00 4.805167902474E+00 1.595946176183E-01 -1.879537684076E+00 -8.830164279310E-01 -5.275721827584E+00 -3.757959568656E+00 4.002086233321E+01
 -6.280275199488E+00 -2.111393131165E+00 -3.553003036769E-01 -2.171415024912E+00 -1.547079006669E+00 -4.612394218247E+00 1.703353071598E+00 -1.480869424438E+01 -1.147247434956E+01 -4.596061322541E+00 5.675863379334E+01
 -5.343043147482E-02 9.049367520662E-01 3.595436587949E-01 -3.833464238836E+00 -4.953529604937E+00 6.788824939813E+00 1.028936033379E+00 -7.989494057355E+00 -2.633636072802E+00 3.918035406114E+00 2.018630848748E+00 5.319086624310E+01
 -9.088992192587E+00 4.793886737801E-01 -8.043562454208E+00 -6.572000124023E+00 3.124601640507E+00 4.456174902801E+00 2.624616670604E+00 1.141945209618E-01 1.890476756911E-01 -1.739600213702E+00 -1.778237750888E+00 3.072385760302E+00 2.004789433742E+01
 -7.281951082238E-01 8.120631598201E-01 2.069636599960E+00 -5.858734315891E-01 -7.060510924631E+00 -4.085461340726E+00 1.394585372731E+00 -1.079898310432E-02 5.371273273819E-01 -1.740874451971E+00 -9.120264260154E-01 1.593857561123E+00 8.302458617923E+00 1.328283392832E+01
 -8.460946656702E+00 1.803890113071E+00 -7.433625596817E+00 2.287343090433E+00 -3.414306473359E+00 -9.917438610710E+00 9.527851994719E-01 4.793899321394E-01 -1.195598837022E-01 9.145803970964E-02 -3.400879420111E+00 -2.018914322685E+00 5.046920105876E+00 2.874709310571E+00 2.765598799005E+01
 1.956582521580E-02 -1.417699369984E-01 -9.209313361896E-01 -1.386444866848E+00 -1.818045500773E+00 2.460665669101E+00 -3.899241805686E-01 4.245217646209E-01 -6.451839731386E-01 4.053887150055E+00 6.009102804800E-01 1.488116803303E+00 -8.298135417618E-01 -2.003824700294E+00 -2.680674314440E+00 1.727342650570E+01
 -6.470374975368E-01 -1.648382511927E-01 -1.120462047136E+00 6.050074226136E-01 2.639876359805E+00 -6.447197479618E-01 -1.838165091078E-01 -1.387279418022E+00 -7.891793355712E-01 6.682560340486E-01 2.201583138167E+00 -2.126255578123E+00 -9.119170784994E-01 -1.589989778292E+00 1.205357269075E-01 3.570261404565E+00 9.421720759694E+00
 2.181297718599E+00 1.807122872764E+00 -1.539344909427E+00 1.578386508556E+00 2.712100278684E+00 6.043968253434E-01 -3.259946852874E-01 -1.911866185773E+00 -8.795618650700E-01 -1.347917813598E+00 2.719210989072E-01 -1.989653259973E-01 1.523564181920E+00 2.654837617318E+00 -1.624600030852E+00 -4.588091901738E+00 -1.189908433492E+00 3.264994861686E+01
 -1.446919667134E+00 2.673974481768E+00 -1.560916378282E+00 4.488293555950E-01 1.641096006719E+00 -6.244216570424E-01 1.078352775193E+00 -5.269492288661E+00 2.271687298300E+00 -2.862143214811E+00 1.500650521486E+00 -4.976015028847E-01 4.519213690904E+00 1.461120487776E+00 -1.606973325874E+00 4.584625604984E-01 1.033566165628E-01 2.350107823158E+00 2.778381097264E+01
 1.574766315629E+00 -4.963820605178E-01 -1.026858566656E+00 7.600800754011E-01 1.271288920679E+00 4.647935836741E-01 -4.618190115517E+00 -9.948782379996E+00 7.092506370668E+00 -1.669005985064E+00 -3.655806207012E+00 -8.216941957945E-01 4.461095188039E-01 6.594877238013E-01 -4.016565256008E-01 -5.258692962560E-01 1.493879770491E+00 3.337549702783E-01 8.012020451021E+00 1.993682316560E+01
 7.657871019068E-02 2.682571639281E+00 4.417936176904E+00 -1.132680229856E-01 -4.173689163003E+00 -4.690946756682E+00 3.423413020525E+00 4.334889088791E+00 -7.086375471862E+00 1.220427093601E+00 2.684610292822E+00 -7.062806456129E+00 -2.602254727923E+00 5.054051279177E-01 5.783006600052E-01 2.206368890700E+00 -2.295142619494E-01 -1.332790864247E+00 8.126717954034E+00 -6.072657019202E+00 2.630047741877E+01
 7.012332073544E-01 -1.318105839168E+00 1.128138689962E-02 -5.938284024547E+00 -6.532818999189E+00 2.573606440150E+00 -9.396303907696E-01 -2.017158772581E-02 -6.962214814915E-01 -1.483531162286E+00 1.747082553013E+00 7.738819028697E+00 2.055997953771E+00 2.265846102722E-01 -2.567940075165E+00 2.054561732186E+00 9.391600996304E-01 -4.153597342360E+00 4.244181837249E-02 -1.606333440330E+00 1.048413140325E-01 2.120367821652E+01
 5.513272534831E-01 -1.989486026012E+00 -2.666956349830E-01 -2.861584836625E+00 -6.979015518881E+00 -2.096899006554E-01 -1.027232029028E+00 -3.394470392860E-02 2.226271515671E-01 1.659549372921E+00 6.325163515948E+00 -2.202755898172E+00 -7.608490265293E-01 -4.774459079817E-01 -1.009747340586E+00 2.319195342480E+00 3.360616744083E-01 -1.044510721155E+00 1.268239002818E-01 -1.106367065830E+00 8.650441350780E-01 -3.938122447753E+00 1.906832359828E+01
 -6.079365267198E-02 2.001485794490E+00 -1.056350753713E+00 -2.741269772088E+00 -1.297044825325E+00 6.948212150695E-01 1.558521793597E-01 2.070463268104E+00 -8.575436149250E-01 -6.448595000647E+00 4.394168677372E+00 9.877443287865E+00 2.901389745421E+00 7.655596940638E-01 -3.118257861928E+00 3.800817989708E+00 1.201006383331E+00 -2.096644667743E+00 4.441847867625E+00 -1.825905785801E+00 2.210058486395E+00 1.118333373754E+01 -1.193520006156E+00 3.476794081535E+01
 -7.018904659948E-01 5.422843931276E-01 -9.695106756318E-01 -2.734850316190E+00 -1.079354836335E+00 -5.715668164604E-01 -7.318654538022E+00 -1.025792087837E+00 6.275668298740E-01 -1.240265978815E+01 6.117555856690E+00 9.476033302802E+00 1.293006492963E+00 6.723863966133E-01 1.847680153936E+00 -1.850251012395E+00 -3.872586843126E+00 -2.168367357762E+00 -2.935897029295E-01 -1.153742153980E+00 -2.082905408282E+00 1.825780292205E+00 -2.205676379249E+00 1.882511608030E+00 2.748543521516E+01
 1.226748550284E+00 4.345894968704E-01 9.979513626790E-01 -3.886447599672E-01 -1.226646118229E+00 3.279768565624E-01 -1.416436901016E+00 -2.833945204771E+00 -2.417480740120E+00 6.656278410747E+00 -3.293177115740E+00 7.273858126917E-01 -8.325176016040E-01 7.094688613786E-01 -9.518258197751E-01 -2.364964272763E+00 -6.471945565506E+00 -3.318655715319E+00 1.344167254397E-01 -1.589753190523E+00 2.338405412217E+00 -3.058451144129E+00 1.986122843014E+00 -1.806343990035E+00 -3.464821164022E-01 2.304556013620E+01
 7.892967124669E-01 -2.775360605487E+00 -5.024564059112E-01 9.825254060596E-01 8.521247468862E-01 2.849683509858E+00 -2.992247979334E+00 1.940093028630E+00 -2.930576769408E-01 5.871364684742E+00 -3.703025651079E+00 -4.313884260964E+00 -1.007191474849E+00 -1.565082421798E+00 -1.113742364036E-01 -1.156325973961E+00 -4.325836250684E+00 -7.502477780262E+00 -4.424650672649E+00 2.411494555002E+00 -5.425790247284E+00 -2.652283246827E-01 6.676653195920E-02 -1.390457367240E+00 -2.049069842856E+00 -2.159050089761E+00 2.014644608449E+01
 1.121729488072E+00 1.302245863868E-01 -4.323452988076E-01 3.394215009129E-02 -1.314473713581E+00 -1.736208316200E-01 -1.207291926995E+00 -1.944917590470E-01 3.771957691322E-01 1.619054390423E+00 -3.423053611684E-01 -3.112627865182E+00 -6.479987232913E-01 5.914420513731E-01 1.086416306530E+00 7.064220741448E-02 1.850750608247E+00 -4.247705456787E-01 1.842165851736E+00 3.270924287877E+00 4.180712458841E-01 -1.014770079679E+00 9.414064475440E-01 -1.689792896806E+00 -2.386576262915E+00 -3.396573037184E-01 6.309959062290E-01 1.293157023283E+01
 -7.019725983610E-01 -4.027445492074E-01 1.750365009578E+00 1.076190537412E+00 3.052502953383E+00 -1.979655086466E-01 9.836149023738E-01 6.910805424665E-01 -1.111029015561E+00 -2.908398742505E-01 1.223417784665E+00 -3.775813505971E+00 1.000643271923E+00 2.179146598817E-02 6.303094471655E-01 -1.166493282296E+00 -7.245446022775E-01 1.006882085903E+00 8.605096358291E-03 -3.347033753019E+00 6.616454596704E-01 -1.721212623445E-01 -1.801289189715E+00 3.210019599235E-01 -2.369132474153E-02 1.238953507418E+00 -6.763156326628E-01 2.217999598843E+00 5.950113871164E+00
 -1.141653679147E+00 -1.366319098547E+00 -1.982830520475E+00 6.025310933807E+00 5.595829197899E+00 -1.826365079198E+00 1.648993969745E-02 -1.456858373120E+00 7.368226894898E-01 2.028906259492E+00 -1.488376914061E+00 -3.114733658135E+00 -1.756695755196E+00 4.683739235618E-01 2.412362191912E+00 -5.295553321624E+00 1.520674032838E+00 2.915985988276E+00 3.175195665032E-01 1.054078365825E-01 -5.422845237286E+00 -7.318600875085E-01 -4.854852328116E+00 -1.040960998559E+01 -2.684219031824E+00 -1.324329939521E+00 7.427441829489E-01 -1.912050526821E+00 -4.255459106552E-01 2.759903647607E+01
 -4.270172629708E-03 -7.416740455199E-01 2.501720761259E-01 1.223987162045E+00 -1.061766550237E+00 3.520252775464E+00 -2.586672527109E+00 1.674601154764E+00 2.940556103645E+00 3.987150366127E+00 -5.537702037413E+00 -7.103064895292E-01 1.020351238015E+00 -2.165637321329E+00 -1.056603479206E+00 4.038432890166E+00 -8.147844099645E-01 -8.827282319202E-01 -2.322288930261E+00 2.553147913800E+00 -2.848821687188E+00 -8.222132736672E+00 7.003451885020E+00 -2.620619699407E+00 2.270980479007E+00 9.801797340438E-01 3.599354037260E+00 -1.080552166958E+00 -2.106781552883E+00 -6.891746967547E+00 3.430851930394E+01
 1.637044063432E+00 -2.462490158278E+00 -7.757767676797E-01 4.055539312227E+00 4.728713799218E+00 -2.619531797338E+00 -2.013732282391E+00 2.186405093635E+00 3.924047027730E+00 -3.529899253241E-01 -1.637274097795E+01 -3.478876131596E+00 1.176018985368E+00 8.849424798857E-01 1.531658415541E+00 -3.292350961015E+00 -1.033733831796E+00 2.777304913922E+00 5.129853037676E-01 2.115028000331E+00 -2.902848697169E+00 -5.420491190027E-01 -3.948915600481E+00 -4.860599618265E+00 -1.386678929076E+00 2.853116557632E-01 3.726463053461E-01 8.960972237851E-01 1.506328090445E+00 6.533061665908E+00 -4.524798336738E+00 2.462085453144E+01
 -9.135692447718E-01 8.716320189256E-01 -8.139998357082E-02 -2.822204687670E+00 -2.323586149800E+00 3.296030924409E+00 2.379382388020E+00 2.924786681615E-01 -1.430674534931E+00 5.953437818925E-01 -1.306210142423E+00 7.685128806578E+00 1.357449814098E+00 1.273245474932E+00 -1.988116107690E+00 1.923298651187E+00 -1.062753058855E+00 -1.860534426032E-01 -3.717230263994E-01 1.297460652117E+00 1.542618561636E+00 -6.715739082569E-01 2.740542114923E+00 2.303201167052E+00 -4.245762926649E-01 -8.317179344379E-01 6.039194710102E-02 -2.117490140314E+00 -2.046156632488E+00 -1.373925610337E+01 -7.890022372696E+00 -8.625606887222E+00 2.771608381289E+01
 7.911152587368E-01 5.852474458256E-01 3.539415898119E-01 -6.593130544114E-01 1.439705896530E+00 9.704571121742E-01 8.079265973506E-01 -1.327009979627E+00 -2.081365148737E+00 -5.942814651411E+00 -2.544915862445E+00 -3.853447826139E+00 3.081924574697E+00 5.725716490565E-01 -2.476938355218E-01 -1.133605654185E+01 -2.348341247451E+00 9.501638765133E+00 1.168579957634E+00 1.030968123820E+00 -1.329162551251E+00 4.176404682030E-02 -4.487661039338E-01 8.743829820879E-01 7.676885413500E-01 -1.138298364762E+00 -2.287967202811E+00 1.555195491547E+00 4.996487928147E-01 2.771498234795E-01 -1.370486751844E+00 3.365072734695E+00 -1.385142253678E+00 3.289627418449E+01
 8.492532832792E-01 1.981326374590E+00 -8.267249201506E-01 -1.916988795618E+00 -1.712121229029E+00 1.834015167210E+00 -8.732624402104E-01 -1.329814661371E+00 -2.102635727075E+00 -3.642090564846E+00 -1.599353754660E+00 1.353863027582E-01 1.722778622131E+00 1.156030843819E+00 -6.161515875439E-01 -2.062627976849E+00 -1.192554378454E+00 5.912035215542E+00 1.196029020643E+00 2.831640853179E-01 -3.534582905457E-01 -9.475389512013E-02 1.953849649483E+00 -1.055884504554E+00 -1.174788890053E+00 2.688207672045E+00 -5.136266452022E-01 -1.978583905790E+00 -1.135266659509E-01 3.486079175778E-01 2.319480892139E+00 -4.425323208713E+00 7.099193742537E+00 9.939948272857E+00 2.280808365240E+01
 5.664489029774E-01 -7.502136003787E-01 1.074486799005E+00 1.218344050779E+00 5.502847473735E+00 -4.029798755628E+00 -1.044499710793E+00 -6.692380035913E-01 -2.920703059887E-01 -6.279224526662E+00 -6.008829296903E+00 -2.224606493438E+01 1.030160885279E+00 1.232828983167E-01 3.927939264602E+00 8.401724608868E+00 4.607843883780E+00 -6.475620956579E+00 1.381103311032E+00 -4.635372925571E-01 7.101003686395E-01 -2.538164443283E+00 -1.815808074135E-01 -8.823118390357E-01 -1.440420956965E+00 -1.010078068844E+00 4.382715240113E-01 1.925761745349E+00 3.414740413960E+00 2.652451028574E+00 -3.638409558753E+00 8.658574958776E+00 -1.073597754659E+01 -2.779484806502E+00 -1.026293803305E+01 3.497819722341E+01
 -1.622658226852E+00 -8.169750638294E-01 -9.150514488510E+00 -1.666069783759E+00 -7.917631739548E-01 1.516736082473E+00 -1.001791379057E+00 -3.653026632828E+00 -5.921364184662E-01 -2.943132519658E+00 2.174441195944E+00 8.362794901442E-01 1.195932024773E+00 1.123652524162E+00 1.784212988369E-01 -1.904758167465E+00 3.297306511401E-01 2.553485920751E+00 1.182013633359E+00 -3.320803117678E-01 -5.212265588112E-01 2.955232042240E-01 -6.461578193377E-02 7.482649507875E-01 3.259952350471E-01 -1.116929570532E+00 3.075144608640E-01 -1.549372678444E+00 5.525202614967E-01 1.403957829207E+00 -2.643361828803E+00 -1.744487793444E-01 -5.856420775346E-01 -1.320800029253E+01 -8.874748541657E+00 3.499992646658E+00 2.489694533673E+01
 -2.717756784684E+00 -3.180205122811E+00 -5.405875621981E+00 -2.321051906812E+00 -2.897794888569E+00 -3.503540864570E-01 5.837508212216E-01 1.869377129917E+00 1.625234715026E-01 4.024882179401E-01 -8.200373941033E-01 5.383823392601E-01 -3.816383959032E-01 8.378767741031E-01 3.668494108046E-01 2.509077792390E+00 -5.450302607139E-01 -1.214271501971E+00 -4.919091923434E-01 -2.695010262203E+00 5.179660220139E+00 3.297814052571E+00 -6.058259552979E+00 -2.508375995351E-01 -2.579784370423E+00 1.198512870065E+00 -1.353615740885E+00 -2.800854042783E+00 7.604204865859E-01 -2.479032678664E+00 -9.493786902333E-01 -2.745267219571E+00 -1.206305282243E-01 -7.161062940447E+00 -4.306652811655E+00 8.757475734180E-01 4.220574796320E+00 2.634759976966E+01
 -4.890640910443E+00 -5.579890748803E+00 -1.836637311748E+01 1.643501863448E+00 2.798872465407E-01 -2.794992400678E+00 -4.867643059309E+00 -2.395521957098E+00 3.089760930123E+00 6.024399436840E+00 6.580848786871E+00 -8.032274276485E+00 -1.233583940430E+00 -2.148591940391E+00 -1.673352437978E+00 4.115504440073E-01 1.490146358147E+00 9.341615534352E-01 3.754415108870E-01 9.946590204261E-01 -1.471707410867E+00 -1.046427783881E+00 2.156094147543E+00 -4.008455399045E+00 6.424893290496E-02 2.904025745250E-01 -6.131701339384E-01 1.640495758263E+00 -1.723595787064E+00 4.013218142919E+00 -1.318656036704E+00 1.168727207949E-01 -9.290305758190E-01 9.473864371194E-01 -1.690053918767E+00 3.179277025876E-01 2.754313161249E+00 -2.162995906220E+00 2.306464286193E+01
 -6.484650254153E-01 -1.002898519444E-01 -2.078263985335E+00 -8.807072802107E+00 1.844341766193E+00 9.464671763403E+00 -1.609783382684E+00 5.368354794356E+00 9.551955069698E-01 -1.455914991034E+01 9.784686298316E-02 -1.038952244970E+01 -6.234761786285E+00 -5.379154263815E+00 -1.938670403386E+00 -9.451365350819E-01 5.313872842901E-01 6.696075751863E-02 -7.661818469098E+00 2.046012440452E+00 1.289783747868E+00 -3.339470109460E+00 -9.197943825590E-01 -7.642589622615E-02 7.556096408502E-01 -1.114690929478E+00 2.156526119330E+00 -7.021659588778E-01 -5.157467199426E+00 4.324509910039E+00 -2.520116175168E+00 -2.118523048823E+00 -1.019886725507E+00 -5.429773575942E-01 3.032774101114E-01 3.695633711840E+00 2.238606893720E+00 2.348184194052E+00 2.179458453689E-01 3.878318421784E+01
 -4.594826213388E-01 -4.385247219583E+00 3.953969964970E+00 -9.711596212496E-02 -2.233042199387E+00 2.286754580665E+00 -8.510230531754E-01 -4.340925362183E-01 -1.006984872961E+00 6.439010364415E+00 -4.546090104864E+00 6.983818621741E+00 -7.490075558377E+00 -6.530522990955E+00 -1.663256725966E+00 5.550180906961E-03 -8.303215769919E-01 -3.453013950971E+00 -1.095861030467E+00 -1.953887008082E+00 -7.837287302599E-01 3.002662991667E+00 -1.925373426620E-01 -4.908503004356E+00 2.435261750139E+00 1.691176020562E-01 1.745946400096E+00 -5.899296857218E+00 -6.285299379361E+00 4.068073170050E+00 2.148663573052E+00 1.082539870072E+00 1.110008133850E+00 1.097622866245E+00 -2.413636302655E+00 -2.636462354684E+00 -9.247608654252E-01 3.380351843142E+00 -9.252167182111E-01 3.823386627324E+00 2.394741249264E+01
 2.224778408694E+00 5.070295806658E+00 -6.755609140611E-01 7.446568900519E+00 -1.501599398997E+00 -1.464983308708E+01 2.842742280421E-01 -4.373607176889E+00 -1.933337866624E+00 -8.421011944639E+00 1.121784470724E+01 -1.820518135789E+01 -6.692264653993E+00 -2.941048420052E+00 1.531411040211E-01 -3.995423721137E+00 -2.330675997675E-01 1.255122512445E+00 4.022994013772E+00 4.721089383420E-01 2.157258093272E+00 -1.254321059429E+00 2.353860405775E+00 -1.954666768852E+00 9.098500384665E-01 -3.657057290107E-01 -1.185502447721E+00 5.579440603811E+00 -8.365463920011E-01 -8.246242331239E+00 -1.087468281510E+00 -6.984295508276E-01 1.101152803683E+00 2.776619621113E+00 1.866899350660E+00 4.652806740059E+00 1.541767867595E+00 -2.246019375852E+00 8.596358406772E+00 -1.649277214783E+00 -1.768878684043E+00 6.138854081780E+01
 -7.626977780643E-01 3.892458903545E-01 -8.969278952509E-01 1.149434159183E+00 2.178998110361E-01 1.534624091657E-01 2.859774889050E-01 8.412260703921E-01 1.474898059547E+00 -2.004895223002E+00 4.058580496260E-01 2.014452524995E+00 -7.194233862666E-01 -4.400425213897E-01 -3.424441603036E-01 -1.324227608274E+00 -1.264231320902E+00 -1.554223721606E-01 -2.831710004732E-01 2.944373535697E-01 -1.406401497316E+00 -2.584983307914E+00 -1.021970795569E+00 -3.442038239770E+00 1.394418321566E+00 4.765438724806E-02 7.627957113522E-01 -8.005404403995E+00 -5.931743017501E-01 -1.092158905828E+00 -1.047110154853E-01 6.057757344762E-01 1.747727966633E+00 -8.826138410598E-01 3.095251688848E+00 -3.002702821488E+00 4.847981562848E-01 4.696650116076E-02 -8.796724283369E-01 -4.917349468136E-01 -1.296861702025E+00 -4.277669999348E+00 1.206297300407E+01
 1.182185166621E+00 -5.594181011590E-01 1.672389249260E+00 -2.092574929537E+00 -1.992886090426E+00 -9.141831299171E-01 1.692499442464E-01 -2.845517449075E+00 -1.654898137698E+00 3.248274891746E+00 2.190066620012E+00 -3.522583036243E-01 -3.053471680824E-01 1.972806121732E+00 3.181980737530E-01 8.394769850895E-01 -5.614385658054E-01 9.860258078521E-01 -8.959496290994E-01 -1.755984263297E-01 1.771120301753E+00 -1.004317274990E+00 -9.902366786966E-01 -4.975158140366E+00 -1.237133976986E+00 1.393449018783E+00 -1.324348862636E-01 5.662907397985E-01 -6.280879351986E-02 -7.079744046061E-01 -1.047835741636E-01 -1.955634166020E+00 8.408988222417E-01 -7.095882822665E-01 8.848687636898E-01 -6.294192643412E-01 -1.038516276983E-01 2.350340324905E+00 2.184397796225E-01 -1.362360840634E+00 -1.957041709447E-01 1.320536896737E+00 4.672566181487E-01 2.885188055259E+00
 3.854566338835E-01 5.863620167370E-01 -1.870924428299E-01 -1.809457898582E+00 -8.521424533175E-02 1.112751957570E+00 1.399005529707E+00 4.563962269005E-01 9.398816102816E-01 -1.057967028987E-01 -1.875997909483E+00 -1.664073587932E+00 -3.879153162667E-01 1.048333299622E+00 6.860032168729E-01 -1.374685327022E+00 -1.187042813715E-01 1.191760612105E+00 1.587844903388E+00 1.859078594467E+00 -8.069627302572E-01 -5.681684903051E+00 -3.492122878800E+00 -1.169052744437E+01 -1.423823401146E+00 6.079849372982E-02 -2.749420153487E-01 -1.083539186397E+00 -2.516900465824E-01 1.262404468561E-01 -4.651845940853E-01 1.852270148233E+00 -3.547794488380E-01 4.190258717985E-01 7.871083968536E-01 -2.746116103737E-01 6.395797990391E-01 7.447104719948E-02 -6.462250096956E-02 8.832893363980E-01 -1.655820839578E+00 -2.672686584709E+00 8.259516955089E+00 2.930615277269E+00 1.267432170777E+01
 1.431608558479E+00 -9.209744248042E-01 2.774707111409E+00 9.673651767375E-01 8.426603983219E-01 -1.172773893394E+00 -3.408698923929E-01 2.785603960660E+00 6.095809536254E-01 1.350210921769E+00 5.189802789742E+00 -5.946803878109E+00 -2.226607924253E+00 -6.836614579212E-01 -8.574941982360E-02 -1.273972822474E-01 1.721614602345E+00 -2.036665511031E+00 -2.359343046382E+00 1.316780529608E-03 9.269216459296E-01 6.222070814725E-01 -1.803973764361E+00 -2.017342246671E+00 -3.142360504794E+00 -1.378644562537E+00 3.949108593794E+00 -4.502262300647E-01 -2.281861614386E-01 -3.612044301635E-01 5.309040794963E-03 6.409989674067E-01 -5.907501134355E-01 -2.143206602301E+00 -2.835504425090E-01 -5.546182958133E-02 -5.492719432309E+00 1.571565497853E+00 1.556257234061E+00 -9.882537453173E-02 1.232107657961E+00 9.511826269720E-01 9.237285773359E-01 7.105117720615E-01 7.971896423043E-01 1.044731085736E+01
 -9.671047874809E-01 2.978901265344E-01 1.418470830281E+00 1.279194715592E+00 -5.065709699984E-01 1.136389509775E+00 1.146644125847E+00 1.942486852748E-01 4.900218626145E-01 6.535048777136E+00 -1.637540676989E+01 1.319001826112E+01 6.135139004007E-01 7.462470600256E-01 -4.086188410034E-01 -5.071883608123E-01 -9.512623552726E-01 -2.299705534766E+00 6.593578256275E-03 3.461178629527E-01 -6.195811593250E-01 -3.629384668703E-01 5.271988919167E-01 4.627566568047E+00 2.870390585561E-01 -4.093262053885E+00 3.789521499091E+00 1.088895080697E+00 -3.496958551271E-01 -9.418044044981E-01 -7.643447386622E-01 7.081140523499E-01 1.892997386276E+00 2.516125147005E-01 -8.459244897343E+00 8.068246282593E-01 4.303132338910E+00 -1.368159959739E-01 -3.198734639783E+00 -6.961079747082E-01 -1.730155747846E+00 -5.334769165629E+00 -1.384342617321E-01 -1.493454355899E+00 -9.537881912835E-01 -9.803740937708E+00 2.912149105727E+01
 -1.915724302477E-01 1.676588992323E+00 -2.596602764917E+00 -5.612828294489E-01 -1.168729235831E+00 -2.601330540317E-01 1.197789428006E+00 9.451609103921E-01 -2.939077692698E+00 -4.412956354140E+00 1.038374010837E+01 -5.580617828298E+00 4.837909306851E-01 1.599824906008E-02 -1.522076053863E+00 4.635969378535E-01 1.041668251647E+00 1.532182933821E-01 2.973026661850E-01 8.913315023285E-01 -1.076815558100E+00 -6.137680965873E-02 4.497294537997E-01 2.195368904906E-01 1.065616531443E+00 2.167923278049E+00 -5.070250868077E+00 -2.626511242527E-01 -1.706920378921E-01 1.004808638603E+00 -2.736187476862E+00 -9.169594283264E-01 -4.399948482312E-01 2.598914760001E+00 4.124323846327E-01 -6.340732974074E-01 2.278171512562E+00 -9.928407829944E-01 -1.274183019600E+00 -1.207616681544E+00 1.084021317870E+00 -4.422818434309E+00 -2.367673395694E-01 -2.154231101361E-01 1.051615131124E+00 -1.716333969540E+00 -1.243377887602E+01 2.097269473032E+01
 -2.416740665662E+00 1.560302583790E+00 -4.202285425332E-01 -1.223308575007E+01 -6.530054759958E+00 -9.153701306485E+00 2.026752698906E+00 1.447125234066E-01 -9.688849935073E-01 -1.440707573731E+00 3.390011948790E+00 1.447145129190E+00 1.332999784966E+00 1.859023520889E+00 2.472024501819E+00 -1.706636891812E+00 -1.601472065450E+00 4.088989783111E-01 -7.789862533716E-01 -1.024119117958E+00 3.910980253834E+00 -3.577055170770E+00 3.749177140285E+00 -3.072963166116E+00 -8.743747151961E-01 1.333849422307E+00 -1.246828191753E+00 -5.728545167925E-01 -1.898014066647E-01 6.000771705348E-01 -1.447894561574E+01 -5.392587453458E+00 8.178668172518E+00 -5.707337149931E+00 2.984357052631E+00 -1.692770653848E+00 2.359188098864E+00 4.188010173702E+00 -2.377439947517E+00 9.832831331953E-01 -2.200202741426E+00 -2.124038228877E+00 1.143317781846E+00 1.235189118641E+00 -2.114773065315E-01 -3.242088712880E-01 -1.363911725582E+00 1.653548313906E+00 3.710292065760E+01
 4.678210739515E-02 1.475807989157E+00 -7.792133821614E-02 -5.157462235629E+00 -3.752711214480E+00 -1.184269423415E+00 -9.356117813156E-01 -4.492289676684E-02 2.189133971847E+00 2.314896689374E+00 -1.258772740674E+00 7.932654615724E-01 -4.598075233514E-01 3.190832759101E-01 -1.459153104739E+00 -3.428310000701E-02 6.907546905371E-01 -1.330303248949E+00 2.273637945867E-01 2.632375523958E+00 -2.538094912898E+00 5.507244501831E+00 -3.759417829244E+00 9.767305342892E+00 2.389667182700E+00 -1.873905407773E+00 1.003232767279E+00 1.090548831417E+00 -1.620514544718E+00 -1.248811779404E+00 -3.579663009642E+00 -3.183568788841E-01 5.848534417428E-01 -1.682996882002E+00 -4.924209180197E+00 2.553381873196E-01 5.361484389730E+00 -1.736690896413E+01 8.236055148100E+00 -2.237975211163E-01 -1.575221644724E+00 -1.879927127392E-01 -6.420452420811E-01 -1.406687129077E+00 -5.763917526364E-02 4.247415502574E-01 1.432147368893E+00 -7.263346811841E-01 -2.093615968629E+00 3.194459601090E+01
 -1.025759386544E+00 -9.866918434727E-01 4.932028677298E-01 -8.625554641543E-01 4.305754577195E-01 -9.404377943810E+00 -1.622925573396E+00 -2.667623420746E+00 -1.235371359326E+00 7.984874440717E+00 6.570715652986E-01 -8.987967866793E+00 -8.120568700999E-01 -1.784805852084E+00 2.382809415014E+00 6.077922602778E-01 4.332899999179E-01 -8.607569682581E-01 -1.771923358636E+00 5.796375499258E-01 6.947507063539E-01 -5.568942651401E+00 6.544031548947E+00 -1.283803860642E+01 -1.100248824869E+00 2.150557462194E+00 -7.804315679787E-01 -6.479780003232E-01 6.870207369508E-01 8.291294865061E+00 9.967589827612E+00 6.819796653836E+00 -1.052530047565E+01 -4.263059254967E+00 -4.425992738609E-01 -6.173125295160E-01 -5.229247431218E+00 4.769698520947E+00 2.581391337703E-02 -2.344485492211E+00 -1.114968195259E+00 2.648328705117E-01 -1.802376121264E-01 3.350484755870E-01 -5.582940001069E-01 -6.519378650164E-01 -8.599644047560E-01 2.845008910484E+00 2.152459007366E+00 -1.552577564794E+01 3.364165988676E+01
 -6.181971278000E-01 -4.129191753557E-01 1.290867706155E+00 1.949855714536E+00 3.555672410586E+00 -3.005892034579E+00 2.704052645117E+00 6.268819035242E-01 -8.124233316331E-01 -8.099809235900E-01 4.253767260657E-01 -2.776580646407E+00 -2.345675792556E+00 1.204333476889E+00 6.621879127608E-01 -6.273019056072E+00 1.431360684463E+00 -2.853328462313E+00 -7.228163353137E+00 -7.181092729625E+00 -6.212982001688E+00 -2.524914896358E+00 -2.474640714157E+00 -1.749383019222E+00 -3.858987082794E+00 2.223718229385E+00 -3.717978688743E+00 1.240840424299E+00 2.159949818693E+00 6.345246646274E+00 -1.331990207987E+01 7.875304010536E+00 2.557572186775E+00 1.443118351873E-01 -8.117429632923E-01 -7.856348798467E-02 2.907183098001E-01 -3.661386812042E-01 4.984287535117E-01 5.224735619320E+00 -2.467309651022E-01 3.905131290912E+00 -1.481847215564E+00 -9.729350552756E-01 1.316563378765E-01 -5.468157832970E-01 -1.367614369138E+00 3.242178491477E+00 7.637164417430E-01 -2.683706401678E+00 3.689063219676E+00 2.602774176091E+01
 -2.595922694712E+00 -1.666480819215E-01 -1.677773620332E+00 -2.579136193699E-01 -4.391571516891E+00 1.921222186691E+00 -1.654297222009E+00 3.444528604825E-01 3.287190746285E+00 8.875171113261E-01 6.476141154063E-01 -2.083555798042E+00 6.840088118187E-01 -1.579690138795E+00 8.766898543230E-01 4.124676135264E+00 -1.466511289454E+00 -4.935773489881E-01 -7.136094312950E+00 -3.606309727522E+00 -4.092845027265E+00 3.535922719644E+00 -1.064236184933E+00 -1.261547838744E+00 2.389513821542E+00 -1.171907521962E+01 5.010315198380E+00 -2.720774727658E-01 -1.319359917014E+00 -2.383015262463E+00 5.960537623947E+00 -4.654360742403E+00 -1.238625563108E+00 -1.098296957842E+00 -8.920467390773E-01 -1.604086958807E+00 -4.381715651248E-01 2.858385868078E+00 3.558521311490E-02 1.613678783195E+00 3.971713648457E+00 1.290623474288E-01 -1.610654906110E+00 5.789853472107E-01 -1.457651960908E+00 -8.933632989699E-01 6.450300130536E-01 -1.346244770467E+00 -3.374094922282E-01 -5.103508473704E-01 1.994737233817E-01 -2.056744953816E+00 2.239192737573E+01
 -7.307003408781E-01 -6.701285863014E-01 8.749398031143E-01 -4.218497585431E+00 -4.417223674527E+00 5.868526826113E-01 -1.537332688769E+00 -1.010923991174E+00 3.991830865542E-01 4.706848600288E+00 -5.491234312071E-01 3.322876205911E+00 -6.091405033696E-01 -3.270790989585E+00 1.587641750412E+00 -1.268447482774E+00 2.923243903334E+00 -2.028805144752E+01 -8.621738115024E+00 -4.440950195480E+00 3.826230957550E-01 3.597965872817E+00 1.295683875954E+00 1.744326387264E-01 8.522830697773E-01 3.554291603654E+00 1.923455296366E+00 1.905434409022E-01 -1.884293291854E+00 -6.127466465349E+00 1.023694586113E+01 -7.930671543153E+00 -5.727796709427E+00 -2.812621153491E+00 -2.605892311503E+00 -9.487084933189E-01 -9.281959650093E-02 1.839980916299E+00 -1.211956929107E+00 -2.223609524552E+00 5.402104333551E+00 -5.433205704060E-01 4.795536793854E-01 6.905383871290E-01 5.192261056833E-01 2.029638242906E+00 -9.891477620012E-01 -1.172727829628E+00 6.534835370616E-01 2.696869839028E+00 -2.548216634783E+00 -1.725807734218E+00 7.100829823772E+00 3.326908181981E+01