#BIOSYM hessian 1
@Type: Hessian Update
@Units
 distance: 	A
 energy: 	Kcal/Mol
#header
@natom 19

#label
L1      L2      L3      L4      L5      L6      L7      L8      L9      L10     L11     L12     L13     L14     L15     L16     L17     L18     L19

#element
Li Li Li Li Li Li Li Li Li Li Li Li Li Li Li Li Li Li Li

#matrix
57
 9.561280004373E+03
 -2.318375592303E+03 1.682779272867E+03
 5.972018039447E+02 2.420588410419E+02 1.547428233291E+03
 -6.294478199113E+02 -2.441269390045E+02 7.355538859400E+01 2.194144321570E+03
 -1.278401284701E+03 2.461162621303E+02 2.331819542756E+02 1.298714724651E+03 1.255705797618E+04
 -6.408926048474E+02 1.713332028756E+02 -8.080673852942E+01 -4.534917290219E+02 1.356735665936E+03 1.281505144911E+03
 -4.772649397194E+02 1.358555683606E+02 -8.148765522774E+01 -2.512726102198E+02 -2.758499104687E+02 -3.548968737986E+02 8.710080314743E+03
 4.098590833624E+02 -1.401677984310E+02 1.797927739789E+02 1.610951807453E+02 -6.255320256468E+02 2.456797800229E+02 -3.342880834376E+03 4.008449738169E+03
 -7.331908158916E+01 -3.296970000463E+01 -9.192530806499E+01 2.601593445509E+01 -5.491602511323E+02 -1.595180020555E+02 4.623176491632E+02 -9.191261642467E+02 1.252865375592E+03
 4.274399883735E+02 -1.450911036772E+02 -4.300770489653E+01 3.608710890248E+01 5.670672162009E+02 1.042380294728E+02 -3.907631303426E+03 -1.790498618217E+02 5.945981539573E+02 8.108562505959E+03
 2.967119091725E+02 -1.096835847356E+02 6.252340690034E+01 -1.369808923748E+02 9.717504462980E+01 7.476791664987E+01 1.706023005333E+02 -1.793175007400E+02 2.015489278271E+02 2.933626302231E+03 3.694434452682E+03
 1.496754150222E+02 -3.631173104539E+01 -1.683397579748E+00 -6.660271839530E+01 -1.578906037887E+02 -4.129603633495E+01 8.271508164431E+02 -2.656652515936E+02 5.685454825140E+01 -2.097758071799E+01 2.105316897625E+02 8.978067551888E+02
 -5.410767567313E+02 2.136736818382E+02 -1.214117727936E+02 1.724966770980E+02 -2.236202437968E+02 -1.133397556749E+02 -1.978835365349E+02 1.209517661706E+02 -2.163227927907E+02 -3.542402115164E+03 -3.014368005853E+03 -3.371323003736E+02 3.991690348610E+03
 4.327451792420E+01 -5.917531616353E+01 2.197821897794E+02 -1.500110369990E+02 -4.648850828485E+01 8.114849481073E+01 -1.104845205090E+02 -2.227079240250E+02 -3.865098444448E+01 -3.115737055497E+03 -2.962261072454E+03 -4.423804497996E+02 2.246119516022E+03 7.740382273569E+03
 2.006676317982E+02 -8.397895975991E+01 -3.534804914530E+01 5.682755943208E+01 -1.030308593865E+02 -7.005212534263E+01 2.318573815666E+02 -2.058059841030E+01 -2.758294715805E+01 -5.321873795924E+02 -3.109248733078E+02 6.906072878175E+00 5.004387151290E+02 -8.268451828878E+01 6.091296120216E+02
 -2.026066068705E+02 1.796237779548E+02 8.296528684574E+01 -8.516722567095E+01 -2.576414942993E+02 -9.152348095984E+01 -7.737179799166E+01 -1.920145747711E+02 1.416903056382E+02 7.012638151370E+01 -3.381475035690E+02 6.978022741043E+01 7.692200539358E+01 -2.845304445008E+02 2.077483036643E+02 8.007221209409E+03
 4.925473482164E+02 -4.329096956316E+01 1.435429756261E+02 -3.112429148766E+02 1.619262602755E+02 1.851962146608E+02 1.241701020017E+02 -2.762577621030E+02 3.044547171072E+01 1.619717020170E+01 -1.258062822416E+02 -1.298702384026E+02 3.470522010742E+02 -1.053365539136E+02 1.694254183952E+01 -2.205309097657E+03 4.731575741775E+03
 -7.128882137399E+01 -2.034885304726E+01 -5.580062074103E+01 1.048272985955E+02 -1.308744221184E+02 -6.630239145087E+01 8.430871247391E+01 -2.075280525625E+01 -1.933862466607E+02 -1.132894781530E+02 9.637787879320E+00 -5.383530959747E+01 -9.859588312948E+01 -1.768599966399E+01 9.872444109993E+00 -2.161665386244E+01 -9.954517348971E+02 1.039512763986E+03
 -5.430761828038E+02 1.316906269641E+01 -1.229655785917E+02 2.489776281721E+02 -2.941678372983E+02 -1.357564024398E+02 -8.352644064925E+01 2.725323156674E+02 -1.096652518637E+02 -2.611349390670E+01 1.868167953267E+02 4.794213332140E+01 -2.486005649154E+02 2.788943807303E+02 -9.940691366805E+01 1.614425497826E+01 3.377043810981E+02 -2.869397836943E+02 3.300739230454E+03
 -3.521232934577E+02 1.976533459228E+02 1.314537874060E+02 -4.485081436750E+01 -4.508636081160E+02 3.368729686336E+01 -3.006568751531E+02 -3.917706637214E+01 3.242843416322E+01 3.175421293154E+01 -1.100818124908E+02 -2.369153543080E+01 6.121805436053E+01 -1.216131878197E+01 -1.869200333875E+01 -6.195422417572E+02 -1.319013780172E+00 -3.729120257751E+02 9.923374273908E+02 1.080242633635E+04
 -3.442075315018E+01 -4.495504096075E+01 -2.106829356521E+01 5.579971716499E+01 -1.581607233912E+02 -5.383754688202E+01 1.789841028003E+01 2.862202455498E+01 -4.559343585385E-01 3.264154699917E+01 6.030933767152E+01 -2.424730871290E+01 -4.754895208261E+01 2.190098060230E+00 -2.429780260357E+02 2.695730747164E+02 8.793752358936E+01 -9.540498956734E+01 4.955831426051E+02 6.565321494278E+02 1.015162418103E+03
 1.901747895961E+02 2.274810602793E+01 5.012227230858E+01 6.271092845175E+01 2.177495634177E+02 7.337525872466E+01 2.698206941621E+01 -2.222195214437E+01 -3.123629791793E+00 -8.136057106198E+01 -7.181711124512E+01 9.043256737028E+00 4.525711633176E+01 4.669355168119E+01 -3.977772995898E+01 1.089570309956E+02 1.931453701649E+01 -1.313832098523E+02 -8.904533020379E+02 2.334813785476E+03 -4.518258997517E+02 6.350674684890E+03
 -6.567067432877E+02 -2.139539213506E+01 -1.743946434169E+02 2.417221411908E+02 -4.940287944269E+01 -1.410362694258E+02 7.101851046303E+01 2.713794132003E+02 -1.062772171198E+02 -4.144910948786E+01 2.262589057992E+02 4.560673544828E+01 -2.307543881694E+02 2.413893799863E+02 -4.835853365684E+01 2.333923031080E+02 3.536502837360E+02 -2.301886101661E+01 1.845533691604E+03 -4.779425356540E+03 5.711276029813E+02 -3.787224129356E+03 6.392124136861E+03
 8.889079883426E+01 -6.685854093769E+00 -9.558145662964E+00 -5.246942364102E+01 5.415725470988E+01 7.983268254743E-01 -6.794980245824E+00 -7.361372626401E+01 1.749762993483E+01 1.190756513155E+01 -6.537787988608E+01 6.777747893566E-01 5.421154912367E+01 -7.525471213394E+01 2.195333761822E+01 1.354845765507E+00 -8.792361222860E+01 1.228617067919E+01 9.435217093571E+01 5.480509396973E+02 1.134434298489E+02 -1.236012392425E+03 8.851436192027E+01 1.532832140133E+03
 3.335344716231E+02 -2.591085770652E+01 -2.801096019099E+01 2.288215563135E+01 1.715161723219E+02 5.192396444429E+01 6.108216906718E+00 -2.850973958404E+01 1.567878769958E+01 -1.094576729322E+02 -6.543421000352E+01 -4.190865640325E+01 7.519083729661E+01 -9.148539492030E+01 -2.924507854227E+00 2.618257392301E+01 -2.763486268722E+02 2.193453292368E+02 1.851505740688E+02 1.071148031152E+02 -5.297629426860E+01 -4.400886038803E+02 4.387010905616E+02 -4.734442559579E+02 7.815561565701E+03
 -3.133453975779E+02 -5.989537487233E+01 -2.082914406090E+02 3.733159890471E+02 -2.043512468956E+02 -1.362935861003E+02 -2.162056714221E+02 5.003442286464E+02 -9.141941785364E+01 -5.001547869021E+01 3.447183505443E+02 -1.022990231143E+01 -4.228136412261E+02 2.261325532377E+02 -1.173244557964E+02 1.451296690221E+02 5.740476600304E+02 -4.731319805449E+01 -6.028432658040E+02 1.270507756208E+02 -8.520888886116E+01 -1.625723210051E+02 -4.296074143633E+02 7.534625824384E+01 2.640627762882E+03 5.230496092364E+03
 2.484518697523E+02 1.062456838851E+00 4.935438002831E+01 -8.341213847961E+01 3.233201850877E+02 -2.079858384876E+01 1.833532442967E+01 -1.131443709940E+02 1.900203464465E+00 -1.846939986433E+01 -1.154392574181E+02 -2.688170530373E+01 1.496768420449E+02 -9.883181909670E+01 2.739528824100E+01 -1.922352068249E+02 -1.179641965061E+02 3.617008715461E+01 2.408708745699E+02 9.255668022339E+01 -9.421326157709E+00 2.333768085280E+02 1.426728728070E+02 -2.334184926204E+02 1.819800597192E+03 -3.333100786857E+02 1.549868476795E+03
 4.615997268638E+02 -2.016217022151E+01 1.178300286329E+02 -2.364319883891E+02 2.326397842535E+02 7.076893644716E+01 -1.318007048962E+01 -3.522266473868E+02 5.721219785686E+01 -7.304384522775E+01 -2.969162070403E+02 2.621533698667E+01 2.784118932172E+02 -2.508173851335E+02 9.313798104757E+01 -2.796503360261E+02 -8.064574205652E+02 4.122727254870E+02 4.858939210895E+02 -6.332173267516E+01 1.922227384151E+02 5.744092610331E+01 3.918079396053E+02 -6.392784269638E+01 -1.134586624655E+03 -1.786686821614E+03 -1.030769395698E+02 4.393532423177E+03
 3.584231946037E+02 5.623145549059E+01 3.366196457861E+02 -3.441244030451E+02 2.183141828445E+02 1.222005256385E+02 8.919931173133E+01 -2.109218828618E+02 5.075488537418E+01 2.451132385682E+02 -2.205524496018E+02 6.259040257708E+00 3.289554000403E+02 -2.031651367998E+02 1.043920813698E+02 7.419884480843E+02 -5.668909485236E+02 -2.666901727246E+02 3.868311489221E+02 -7.012605248752E+01 -6.629075210165E+01 8.493856805722E+01 2.827467347032E+02 -1.263997683305E+01 -2.795945771867E+03 -4.439285389107E+03 5.220377013224E+02 -9.429417723061E+02 8.992824984058E+03
 -1.267993012545E+02 -1.694544052167E+01 -2.255484689833E+01 -1.209809232588E+01 -1.276850870557E+02 -2.090219560235E+02 -4.155211222517E+01 5.482125640109E+01 1.446259982911E+01 3.282197263387E+01 4.798447883582E+01 -1.779279537617E+01 -2.018932291691E+01 -1.488574583565E+01 -2.058946749827E+01 -3.189085494812E+02 3.834993831086E+02 -1.082252222239E+02 -8.915693246576E+01 -4.102700052329E+00 -3.699193267815E+01 1.945782419352E+01 -3.381664011342E+01 -4.859085194482E+01 7.126082105103E+02 7.287802313566E+02 1.066656270751E+02 -4.238769352788E+02 -1.579617586550E+02 1.094253627289E+03
 -1.588551375133E+02 -3.414448468692E+01 -7.886598532638E+01 -4.485799780608E+02 1.055978484654E+01 3.951799649578E+02 -1.177248429966E+02 -1.391519446695E+02 2.081576616843E+02 -1.099778561736E+02 3.241172760410E+02 -1.561913409094E+02 -3.135236116859E+02 7.490110185067E+01 -1.684253523959E+02 -7.496934764511E+01 2.707457480071E+01 -3.959418395519E+01 -6.667460124292E+02 6.484021479333E+01 2.566278523461E+02 -4.298953944954E+02 -3.874456648219E+02 4.487987412277E+02 -2.190687692881E+02 2.914983555072E+02 -3.323324595065E+02 -7.741155657904E+02 9.245107942317E+00 -3.695245060198E+02 4.808724613828E+03
 -1.202070424798E+02 -4.039273081550E+02 -4.761376013745E+02 1.142211488382E+02 -5.226453256186E+01 -8.485139024566E+01 -1.877498253154E+02 -5.351938377093E+02 4.887247343220E+02 3.035092538554E+02 -5.454486858912E+02 3.192515471140E+02 1.357720925642E+02 -2.346042036628E+01 7.640692571222E+01 -1.092438519986E+02 -6.698787788142E+02 -2.052935054084E+02 1.815203607241E+02 -2.126380731372E+01 -6.015902339941E+01 -2.967342126356E+02 -2.285895800710E+02 3.588060814639E+02 2.849619536896E+02 -3.260121238947E+02 3.408992394095E+02 -6.411720854368E+00 -4.725551309296E+01 2.042217661502E+01 2.813883596943E+02 5.205986286138E+03
 -1.357345051174E+02 -3.486017023259E+02 -4.624780394892E+02 3.927216120942E+02 -2.421129685127E+02 -3.159521120926E+02 1.026742614712E+02 4.315946087756E+02 -3.485694294271E+02 -1.635152741854E+02 4.018664871868E+02 -1.998654017342E+02 -2.195140710668E+02 3.189281102047E+01 -1.157634752907E+02 -5.174114339494E+01 -2.251624118365E+02 -1.564903523254E+02 2.776386753543E+02 -1.484450303141E+02 -2.046208292568E+02 3.707918962536E+02 2.384364957180E+02 -4.272343087067E+02 -2.681538707875E+02 2.300852688539E+02 -3.262900109743E+02 -4.120452688489E+02 3.988548214888E+01 -2.375648129637E+02 -1.055204179234E+01 -5.387597689141E+02 4.195871837696E+03
 -2.428086700332E+01 2.123847727383E-02 -3.958280027870E+00 1.245545523803E+01 -2.247964813007E+01 -4.090568004857E+00 -9.935906827757E+00 1.706343968503E+01 1.878804897014E-02 4.867839639607E+00 1.013035399146E+01 1.168165659349E+00 -9.926577500335E+00 9.390993526553E+00 -1.738527285417E+00 -7.081715834555E+00 -6.457319977187E+00 1.732346129841E+01 -1.872056037525E+02 3.217842143690E+01 -1.821696826999E+02 -1.401000135100E+02 -1.311539039407E+02 -1.838473461057E+02 -1.014448983870E+02 1.189553860633E+02 1.430925734072E+02 -2.087914923040E+02 -5.344091503661E+00 2.248572472529E+02 -2.731933476467E+00 5.605953716711E+00 -1.361898693338E+01 8.536014803841E+02
 1.686480388942E+01 3.287300841290E+00 -4.145731178616E+00 -4.075326036942E+00 2.297151705719E+01 2.323480800000E+00 -8.382331026354E-01 1.212884842372E-01 -3.214256645034E+00 -1.541248597127E+00 -5.346703173702E+00 -1.327967050110E+00 7.152790649698E+00 1.653523147628E+01 8.200165430228E-02 -3.935627930983E+01 -1.419403365007E+02 1.402159463488E+02 3.821018474804E+01 4.242009978556E+01 3.400158742353E+01 -7.064537139721E+01 -1.278168910972E+02 -1.484439185408E+02 9.266370630782E+01 -1.550447971386E+02 -1.526481503246E+02 4.082440774132E+00 8.371743659345E+00 -1.834789931687E+01 -1.834316876932E+00 -1.061946471510E+00 -1.949680159299E+00 -2.774698988821E+01 7.223926710024E+02
 7.278646506007E+01 -3.226397939948E+01 4.012886197172E+01 -7.775866619038E+01 -2.263070785299E+02 1.275670813118E+01 -6.603706284122E+01 -4.366164661875E+01 5.199707502944E+01 2.697616172421E+01 -3.737581773588E+01 -4.657731364265E+01 8.207995166884E+01 -1.464074382692E+02 2.336784596425E+01 -1.850205654114E+02 3.477460639180E+01 -8.073815980602E+01 -4.324146421487E+01 -4.785011745373E+01 -1.436472201918E+02 -2.615785764489E+02 3.807732136883E+01 -3.197045758948E+02 2.128334433164E+02 1.471180535892E+02 -2.597887376935E+02 3.178261074552E+01 -3.167433571072E+02 -1.579480067475E+02 6.680250915406E+01 -6.723565211249E+01 -2.941160037635E+01 -1.124579076642E+02 -5.059730492828E+00 1.911607352844E+03
 -3.464294870668E+01 -2.442142297154E+01 2.118698466880E+01 -1.898758986902E+02 4.837070271367E+01 -1.860565350455E+02 -6.547868392711E+01 -5.741071982060E+01 -1.021396633491E+02 -3.248481621152E+01 9.523063075059E+01 1.062965954564E+02 -1.212695810542E+02 2.484863300521E+01 9.724759522635E+01 -5.717093821537E+00 2.548145784078E+01 -5.910513137904E+00 -1.970640638336E+01 -1.459633899432E+00 -5.248035790586E+00 -6.109307008810E+00 -1.207919131511E+01 3.245270614728E+00 1.438383340386E+01 -2.107688217130E+01 1.045660302677E+01 2.360259011844E+01 3.983128136921E+00 5.625408578547E-01 -3.692807492543E+00 1.481800824138E+00 -1.297541905994E+01 -6.853875291731E-01 1.643101595829E-01 1.177758983388E+01 5.942821317592E+02
 -5.418676510856E+01 -2.164072843974E+02 2.154450585668E+02 8.326509825583E+01 -8.048529796448E+01 5.764809456424E+01 -8.413032579301E+01 -1.891521899981E+02 -2.122230620668E+02 8.427162093807E+01 -1.219470263059E+02 -1.805012199282E+02 1.603558918349E+01 3.729273318696E+00 -2.757867885217E+01 -5.890912120966E+00 1.339737236008E+01 7.373266969150E-01 -1.751676566851E+01 -8.972795658264E+00 -3.466253757923E+00 -3.814991177243E+00 -7.880283730741E+00 -3.804872276823E+00 4.503473912701E+00 -1.166702381815E+01 3.481119959270E+00 1.638103996708E+01 4.136429424616E+00 -3.011795774300E+00 -1.891135194490E+00 1.378995495262E+00 -1.692511845053E+01 -1.808279161750E-01 -4.734810795911E-01 1.082370885927E+01 -2.333341379544E+00 6.834228078615E+02
 -2.996827477215E+01 2.683758984200E+02 -2.469487338321E+02 -1.544239822981E+02 2.928311769831E+02 -2.039040975274E+02 -5.080085047869E+01 -1.949591994857E+02 -3.318345749657E+02 9.062458504459E+01 -1.375118066778E+02 -2.298880012074E+02 2.397714509587E+01 1.130400030986E+02 -1.342330212287E+02 1.526040853814E+02 8.067056065601E+01 -6.151188573546E+01 -9.881654556939E+01 7.496844810618E+01 -5.436573424321E+01 6.166645820916E+01 -1.768819855839E+02 3.809050724360E+01 -4.606249816034E+01 -2.609816722626E+02 5.811247553079E+01 1.486991488505E+02 2.656179618272E+02 -6.937302138132E+01 -4.134480678789E+01 2.859921096617E+01 -2.273698664553E+01 -1.780369818496E+01 1.755494703618E+01 -7.836839692031E+01 1.604242954764E+02 7.078760820636E+01 1.620772614966E+03
 -6.232353120313E+03 1.464660614925E+03 -1.104203064420E+03 -7.733626814967E+02 -9.021115772751E+02 7.725607057823E+02 3.498330500561E+02 -2.881803776063E+02 1.156920249055E+02 -3.532001664704E+02 -2.676460469093E+02 -9.857421036657E+01 4.210429949534E+02 -5.304063530669E-01 -1.281477482490E+02 1.015913566684E+02 -4.158967064878E+02 9.479479395609E+01 3.974957777539E+02 2.862050351907E+02 4.804833316089E+01 -6.167736284011E+01 4.441424719328E+02 -1.366627381044E+02 -8.866469233114E+01 4.522276776485E+02 -2.192126071123E+02 -3.144040253895E+02 -7.472612580190E+02 9.085869887921E+01 3.244768048299E+01 1.342463209805E+02 1.336383826324E+02 2.276283604423E+01 -1.521090201677E+01 -3.412149937468E+01 7.042427805846E+00 5.013993421420E+01 -1.332237562341E+01 7.206841559527E+03
 1.999619504847E+03 -4.591573342097E+02 -7.150427350810E+01 -1.669030962105E+03 -3.894581077123E+03 1.652349451504E+02 -4.440795406012E+01 3.852395297828E+02 -4.576404096973E+01 -5.510547547425E+01 2.901927612028E+02 1.218382182329E+02 -3.723405884173E+02 2.126946645207E+02 -3.449143403785E+01 1.992793583510E+02 4.356208974504E+02 -9.426913930036E+01 -4.573856965333E+02 -9.371325754263E-01 -3.771972332870E+01 -1.764598806104E+02 -3.974395200246E+02 1.165613326848E+02 1.800571614891E+02 -5.399948469916E+02 1.435816955330E+02 5.512639245949E+02 2.032090136260E+02 -4.726178907572E+01 8.827107042799E+01 -2.082663030612E+02 -1.716473241367E+02 -1.851263666306E+01 -1.362711869599E+00 2.417533534822E+02 2.301683429377E+01 -8.437383779327E+01 -1.258959558658E+02 -1.328791809022E+02 4.383293508776E+03
 -1.586846336015E+03 3.942624169976E+02 -1.261128750117E+02 2.604058515634E+02 1.282365118589E+03 1.856616706846E+02 -5.745874723375E+01 -7.135377093449E+01 -2.508949862840E+01 -1.153103904853E+01 -1.311699331988E+02 -4.653444130531E+01 1.512901927959E+02 3.053491350406E+01 -3.206478555020E+01 -1.832615990336E+00 -8.088960775884E+01 -1.949596343200E+01 1.051474311272E+02 1.542682931496E+02 -1.470238601575E+01 1.605805551038E+02 -7.751765624542E+00 -3.331688913915E+01 -1.637671481077E+02 -4.866353889283E+01 -2.605396298318E+02 -1.678554483114E+02 1.357548026889E+02 1.746356123343E+01 7.472455117580E+01 -5.872050460817E+01 -3.234687273047E+01 4.126592397499E+00 4.036312061448E+00 -8.910035476388E+01 -3.124892194704E+01 6.612943095549E+01 1.177840405343E+01 9.562847854532E+02 -6.958267033286E+02 9.039285858660E+02
 2.291304026104E+02 -6.710152970502E+01 1.591340209694E+02 -1.322991127679E+02 6.057070908260E+02 4.907338085329E+02 -4.277728508971E+03 3.373980180958E+03 -9.427939919874E+02 -2.031409622108E+02 -2.049422378455E+02 -3.628542926805E+02 2.208134785020E+02 -2.182021498721E+02 -6.349778554182E+01 -2.855569027245E+02 -2.999248713210E+02 4.568478199258E+01 2.585222671250E+02 -8.755103175423E+01 -8.654338997567E+00 -8.295104510518E+00 2.966328185068E+02 -1.014902086906E+02 2.047512361286E+01 4.124678116849E+02 -4.128707476362E+01 -2.802657952268E+02 -1.116609377012E+02 -2.331801513060E+01 -6.322116930355E+02 -3.498576036755E+02 4.714508692414E+02 1.290729852770E+01 3.343668982730E+00 -7.226028031748E+01 -9.339711469667E+01 -4.905711746236E+01 -7.900730792074E+01 -1.418429634040E+02 3.846298354000E+02 1.731864393655E+01 5.168398653878E+03
 1.022787224633E+03 -4.030017373943E+02 -1.294891976327E+02 2.434059345979E+02 -8.243046397898E+03 -1.944043178855E+03 3.839938168494E+03 -2.870033597019E+03 1.311792561010E+03 -1.716048101282E+02 -7.442880529903E+01 3.586517997169E+02 2.135178523057E+02 -6.968199039350E+00 2.159265616626E+02 5.602463824355E+02 -4.569091275445E+02 1.967766374220E+02 3.388407252275E+02 2.434895679669E+02 1.803748069812E+02 -1.168159293506E+02 1.163885737184E+02 -3.964752349690E+01 -2.194038407318E+02 1.683457769276E+02 -3.330075676876E+02 -2.360233057986E+02 -3.199028337762E+02 9.647289729334E+01 -1.904351518687E+02 -1.305525859691E+02 2.695849929704E+02 2.005885995019E+01 -1.497731623068E+01 5.726288557668E+01 -5.262974045312E+01 3.694213323679E+01 -1.405709071435E+02 -9.671306499529E+02 -1.662037574399E+01 -7.947158745534E+02 -3.967593776050E+03 1.191814972707E+04
 2.017970523711E+02 -6.554421263676E+01 4.876821260497E+00 -9.595047147424E+01 -2.067193849870E+03 -2.286047102237E+02 -1.157097976061E+03 8.502495184675E+02 -8.176800517017E+01 6.989680176429E+01 -1.239138276495E+02 -7.536362308968E+01 1.400683298293E+02 -2.222202796975E+01 -4.392506098796E-01 1.277243848103E+01 -1.289518193965E+02 2.927395423855E+01 1.541206023967E+02 1.218075457915E+02 2.109862453067E+01 7.307811605472E+01 4.727337416381E+01 -5.537575531094E+01 -5.560662646536E+01 1.993770128036E+02 -8.793822884321E+01 -2.541469672123E+02 8.518919264421E+01 -1.725530434302E+02 3.471220925979E+02 1.304416722391E+02 -1.187801685474E+02 1.015609833508E+01 -3.086875011296E+00 -9.383906214210E+00 -1.502876342580E+02 -4.646181102979E+01 -2.073208632990E+02 -4.430575207972E+01 3.777544495377E+02 -1.714158426795E+02 6.220684093729E+02 7.768370158397E+02 1.458094637865E+03
 -2.333288064263E+03 1.072151964563E+03 5.934076549694E+02 6.604382359821E+01 2.891835681683E+02 5.662189610353E+01 1.136096951947E+02 -3.111130961406E+00 -6.731501266177E+01 -1.864321791411E+02 -5.752448048167E+01 -3.939490020821E+01 -1.829215130772E+02 1.186404992472E+03 -1.944453610800E+02 1.772114945643E+02 2.680087770720E+01 -5.474404903144E+01 4.242674920002E+00 4.137923301753E+02 -8.672965405426E+00 4.531026283120E+01 -1.540153249877E+02 -5.529142621854E+01 3.818404214666E+01 -1.659079960530E+02 6.545047294530E+01 5.283468561553E+01 1.432320878273E+02 -1.933921098048E+01 -4.143264226011E+02 -1.879989911535E+02 -2.951939868545E+02 -2.095971972760E+00 6.921050966918E+00 1.912712815857E+01 -6.496602445831E+01 -4.165149460255E+01 8.217613813277E+01 -2.509787445852E+02 -2.937057630023E+02 1.829172628146E+02 6.180033599985E+01 -2.649915489759E+02 -5.394178099388E+00 3.327836464555E+03
 2.531143927632E+01 -1.898296097706E+02 -5.823595749358E+02 2.894069023486E+02 -1.389605149526E+02 -1.343859941585E+02 3.490352153232E+01 2.504746497906E+02 -1.038691598132E+02 -1.119208215885E+02 -4.123866739005E+00 9.792622351443E+01 5.954509222102E+02 -4.636755260453E+03 3.649998262085E+02 1.687864015887E+02 3.379586428944E+02 -2.868862167236E+01 -3.978255993190E+02 -1.083353638569E+02 -6.388968128818E+01 -1.025832736639E+02 -2.757482036646E+02 1.082064992202E+02 2.742369648779E+02 -3.657212815729E+02 2.181501678457E+02 3.666176375523E+02 2.145327378560E+02 3.876593085853E+01 -3.230261377443E+02 -1.505514843580E+02 -1.946067814083E+02 -1.357063088057E+01 -1.382585493094E+01 2.024732596059E+02 -6.031169228158E+01 -4.902562374023E+01 -1.425050528720E+02 8.832259346389E+02 -4.838149037296E+02 1.014867848994E+02 3.007607806755E+02 1.972783554647E+02 8.380980400698E+01 -1.730808370224E+03 5.273499448358E+03
 9.871442817997E+02 -3.451176242179E+02 -2.673310213438E+01 -2.713463703308E+01 5.176940530629E+01 -3.024351857805E+01 3.131171380400E+01 -2.813096786494E+01 6.424192940828E+00 -1.096652899828E+02 -1.273280865582E+02 1.124168392359E+01 6.973536819628E+00 6.628756164634E+02 2.390921084258E+00 7.145127498420E+01 2.256008491067E+01 -1.437385881100E+01 -5.133255278998E+00 -9.789137920676E+01 -1.066122713013E+02 1.076696022112E+00 -8.098902790977E+01 -3.798064583081E+02 -1.303501396663E+02 -7.679415925935E+01 -2.036665572903E+01 -6.592093725874E+00 1.584637573255E+02 -3.509237437561E+01 -2.334136258962E+02 -1.077660230685E+02 -1.444012544396E+02 -4.699170096935E-01 1.095954822948E+01 -4.999544495590E+01 8.162041566246E+01 6.013361461886E+01 -6.526114749587E+01 -4.445386495302E+02 1.213463954293E+02 -9.516966881348E+01 -7.193341943953E+01 3.037865371713E+01 -1.237252410777E+01 -1.232807652428E+02 -2.217927618222E+02 9.912843535700E+02
 1.343759522071E+02 -1.145833954917E+02 -1.166188284982E+02 1.490592587045E+02 2.320890270377E+02 -1.965417490698E+01 3.089401331558E+02 7.685196296604E+01 -6.355209007994E+01 -2.033906930532E+02 1.726247245865E+02 3.731425902948E+01 -1.289190854825E+02 2.168548621733E+02 -1.004363465034E+02 -4.140224212149E+03 -1.288733730732E+03 1.184406221706E+03 -1.966433886922E+03 -3.011557909328E+03 -8.415761220080E+02 -2.205606516512E+02 -2.411043028650E+02 -1.077199375355E+02 3.119448608232E+00 -3.142519774196E+02 1.140596855977E+02 2.125734458767E+02 3.108675727350E+02 4.505044084472E+01 -9.780693345580E+01 2.195030535490E+02 1.482369578834E+02 -7.230666971090E+01 1.007828777391E+02 2.322670834399E+01 -5.387201178192E+00 4.734413631281E+00 -8.207463902581E+01 -1.010308402916E+02 -2.790906978337E+02 -1.105477672797E+00 1.331554184167E+02 -6.134014612062E+01 2.983543494108E+01 -2.267507960776E+02 -1.992446260756E+02 -1.915958788116E+01 6.714892826545E+03
 6.498583474486E+02 -1.240221840268E+02 3.756709244044E+01 -1.692163982156E+02 4.149662709856E+02 9.293962183733E+01 3.355636569139E+02 -2.180692441942E+02 5.619518600171E+01 -1.378175705542E+02 -1.031585109769E+02 -2.317530478507E+01 1.880346738374E+02 -1.055315224374E+02 4.524548737076E+01 -1.376173121058E+03 -5.418782362432E+02 6.550747362971E+02 -2.907596642233E+03 -5.619985250877E+03 -1.094516149344E+03 -1.619637791640E+02 -3.174829990310E+02 -3.272877078100E+02 -1.341120382791E+02 4.022194759084E+02 -1.907356473995E+02 -4.850519025251E+02 -1.445951610399E+02 1.439285604665E+02 2.867831169692E+02 -2.988548622389E+02 -1.081233308751E+02 1.226350525562E+02 -1.587553198460E+02 1.303838588995E+02 2.054486946298E+01 2.300536563015E+01 1.184904403634E+00 -5.193381440811E+02 3.421096485535E+02 -1.652803610734E+02 -1.986261999330E+02 -3.561458617445E+02 -1.742355474002E+02 -1.907734763371E+02 2.666854584120E+02 -2.996052386772E+00 4.168545045138E+03 6.737395625450E+03
 1.454363322312E+02 -1.344760672177E+01 9.893367146957E+00 -5.611982887394E+01 2.480906041546E+01 -6.130532835000E+00 9.056736119302E+01 -1.259383646734E+02 3.060829763812E+01 1.302337708227E+01 -8.459070945074E+01 -1.673861870671E+02 5.458786384936E+01 -1.439835040799E+02 9.104711903045E-01 1.126993998815E+03 -1.043040790624E+02 -3.194051137252E+01 -2.976300498134E+02 -1.239397406510E+03 -6.539918962867E+01 -2.155038694253E+02 3.586835764616E+02 -3.269790968793E+01 -5.757993772662E+01 2.176960044284E+02 -1.164693884889E+02 -5.291143141269E+01 -2.497285512365E+02 -2.647233863358E+01 1.688341037975E+02 -2.373654110244E+02 -1.702089010081E+02 -9.922368737838E+01 1.279662407350E+02 -1.983004613923E+02 4.640172718611E+00 3.365585591942E+00 2.928123024062E+01 -9.577591650555E+01 1.459867521796E+02 -5.961117424854E+01 -1.481001530198E+02 4.563488728457E+01 -6.333895979557E+01 -3.801430501805E+01 1.698966052365E+02 1.850852519393E+01 -4.453427732603E+02 7.540292318312E+02 9.464210923554E+02
 3.389461843213E+02 -9.986368802262E+01 1.150868033164E+02 -2.414032394936E+02 -4.486557703460E+01 1.345789435721E+02 1.899201253281E+02 -5.704041008537E+01 9.844623935801E+00 5.653746565438E+01 7.933620111781E+01 -1.652300304533E+02 2.441962864302E+02 1.559949299960E+01 -6.786380602710E+01 -3.388765182078E+03 3.976430732841E+03 -1.294038069689E+03 1.142104401521E+02 9.034217121600E+01 -9.935959643593E+01 -9.064939870806E+01 1.512405194896E+02 -6.638175603847E+01 -3.058902446618E+02 2.082155353923E+02 1.689631463748E+02 -2.545572215559E+03 2.424989302310E+03 7.864921974771E+02 -2.543425651599E+02 -3.346131389905E+02 -2.834855483282E+02 -1.340440660878E+02 -1.179844051916E+02 2.238318091949E+02 1.510761043999E+01 1.166271054801E+01 -2.275765484901E+01 -3.819067103915E+02 1.944354941340E+02 1.863504115244E+01 -1.422492313872E+02 -3.119734526986E+02 6.781702628240E+01 -5.225426502288E+01 2.176656412389E+02 1.349871015896E+01 -5.005995867210E+02 2.918259770151E+02 -3.351097270085E+02 7.046408015013E+03
 -1.678003550231E+01 9.891968084065E+00 -9.422977557798E+01 1.955751392123E+02 -7.200009219914E+01 -1.657553118485E+02 -2.295066330459E+02 -1.990289501830E+01 3.794329653942E+00 -1.168441722534E+02 -1.364991415634E+02 1.008234574207E+02 -1.547434635340E+02 -1.631545403700E+02 8.051490632910E+01 3.046988849487E+03 -3.858449551297E+03 1.369573568384E+03 -1.190796457874E+02 -1.994936132872E+02 1.691358355463E+02 -5.992380405160E+01 -5.136454023252E+01 1.895132726772E+01 2.984842213199E+02 -7.453703045024E+02 -2.292417419256E+02 3.741890441246E+03 -3.744294819534E+03 -1.018498051489E+03 -2.954105167714E+02 -2.900705552823E+02 -3.279081398708E+02 -9.703724978451E+01 -1.056310736579E+02 1.998303192861E+02 -4.233048958221E-01 7.106060727947E+00 -2.851658317814E+01 2.295787826307E+02 8.673452967711E+01 -2.013433771589E+02 5.818856102645E+01 3.480613261781E+02 -9.286903198020E+01 1.938057782865E+01 2.820531360399E+01 -6.105138746814E+01 1.808682345359E+02 -2.169282343421E+02 3.754634174115E+02 -6.697591196993E+03 9.260229997662E+03
 1.128058954731E+02 -2.941834074193E+01 -2.150989052620E+01 -4.440933034391E+00 5.611596385176E+01 1.161018641102E+01 4.394265454004E+01 -2.456916371573E+01 -1.448691238611E+02 4.432527831016E+00 3.328209379046E+01 -3.872897707835E+01 4.953939279355E+01 -3.157288439319E+01 -2.346605110462E+01 -1.198297215637E+03 6.685364655774E+02 -7.473456543640E+01 6.617610344062E+01 -1.110712680206E+02 -3.603771156941E+00 -1.865743703678E+01 1.661458938274E+02 -6.401049545118E+01 3.081488912735E+02 4.527701013991E+02 -1.127836309094E+01 1.598832236157E+02 -1.139260406880E+03 7.542876913120E+01 -5.265417114599E+02 -4.986195829539E+02 -5.626819613458E+02 2.224151265868E+02 1.765256060771E+02 -3.122518015512E+02 4.417857597041E+00 5.365584937687E+00 -1.673797073680E+01 -6.065709192448E-01 1.159521808345E+02 -6.118175043631E+01 1.828209197751E+01 -9.270667344061E+01 -2.715532596913E+02 -3.089305393934E+01 1.129490046960E+02 -3.609171346162E+01 2.795221460426E+02 9.910236008416E+01 -8.528687137026E+01 6.416988210561E+02 5.269223341588E+01 1.682771209944E+03