#BIOSYM hessian 1
@Type: Hessian Update
@Units
 distance: 	A
 energy: 	Kcal/Mol
#header
@natom 19

#label
L1      L2      L3      L4      L5      L6      L7      L8      L9      L10     L11     L12     L13     L14     L15     L16     L17     L18     L19

#element
Li Li Li Li Li Li Li Li Li Li Li Li Li Li Li Li Li Li Li

#matrix
57
 1.377888910392E+04
 6.867323782589E+01 1.412832287539E+04
 -4.624471890971E+02 -1.381624661154E+03 1.251402759563E+04
 1.094035808268E+03 6.070918560681E+02 -7.984193694849E+02 1.509834412968E+04
 7.491572962313E+02 3.372019560910E+02 -3.977634584911E+02 -5.437683515586E+02 1.584851316231E+04
 1.122810457973E+02 3.840029140402E+02 -1.639029978140E+02 1.525067646320E+03 1.258220330086E+03 1.624517660827E+04
 -5.556297040772E+03 2.549512086075E+03 1.513648792977E+03 -1.129129851345E+02 -2.651849494262E+02 -1.087826359323E+02 1.431342259506E+04
 1.301042663021E+03 -1.547644525903E+03 2.336988014495E+02 1.226108139931E+03 6.712680454180E+02 1.353266032389E+02 -3.892569730659E+02 1.401177655312E+04
 5.720055132732E+02 -1.504415651924E+03 3.616725464398E+02 6.982023797815E+02 9.494892633297E+01 -1.409066597072E+02 1.187782294003E+03 5.139005804414E+02 1.284938995480E+04
 9.381133070978E+02 3.233533179044E+02 -7.068196889644E+02 -1.486992687784E+03 3.731359857086E+02 -1.556955170683E+03 -3.650838198682E+02 5.909210907927E+02 6.172838430547E+02 1.401104482002E+04
 -1.399760219151E+02 -1.413673318840E+02 2.967933071642E+01 8.056299629444E+02 -1.875159444378E+03 2.920555201505E+03 -4.103234502887E+02 -5.759829781557E+02 -8.620051466794E+01 2.824406806121E+01 1.528539777747E+04
 7.284513145132E+02 -2.315820652241E+02 -1.187697884967E+02 -1.156128099720E+03 2.630994622767E+03 -4.237627409568E+03 -5.115824739839E+02 -7.307507925644E+00 9.756276359748E+01 2.769490188464E+02 -1.803081295814E+02 1.332169542687E+04
 -6.715715566810E+02 3.610596909120E+02 -6.852478063754E+02 -3.698247445710E+02 -5.179153748986E+02 5.394733977214E-02 -2.268415112356E+03 -1.267631756551E+03 -2.795803147723E+03 -2.333728324583E+03 -3.367817509679E+03 1.076031494219E+03 1.397586172966E+04
 -9.632576987489E+02 -1.912927128179E+02 5.296230166354E+02 1.069242641099E+03 2.932546621664E+01 6.366152942055E+02 -8.719237437516E+02 -1.372476956770E+03 -2.240709918893E+03 -2.150225815310E+03 -4.953243725015E+03 1.455785421286E+03 1.465911155869E+02 1.496356420247E+04
 9.868838404251E+02 2.369494839586E+02 -3.384098681746E+02 -6.028812119593E+02 -3.866685592424E+02 1.947618676602E+02 -3.523183727907E+03 -5.145380646336E+02 -3.792578458640E+03 1.259482464617E+02 1.729854234422E+03 -7.404001783830E+02 4.269996201820E+02 -6.625470753082E+01 1.303485582195E+04
 -6.062625016389E+02 -3.623906795316E+02 -3.515319419883E+02 1.630325188614E+02 2.143435281848E+02 2.002935926247E+02 -5.198161709245E+01 -4.763590814112E+02 -3.351615194597E+02 -1.279029555837E+01 -1.918718848373E+02 1.665965315158E+02 -1.836999168418E+02 -1.232767378556E+02 3.389362813621E+02 1.134815088164E+04
 -4.523898066849E+02 -4.680627896567E+02 -4.787030449668E+02 2.621342592721E+02 6.954936538903E+01 -1.028722861232E+02 9.998041771080E+01 -3.567301803559E+02 -5.093505712906E+01 3.966767435244E+02 -1.025808578119E+02 4.499183975639E+01 5.725991093566E+02 -5.880706706820E+02 -1.515319518391E+02 -7.999369780009E+01 1.104719450542E+04
 1.031095729901E+03 1.168656873678E+02 -9.792692790319E+02 -1.341590876051E+03 -6.564767709639E+02 7.521276026870E+01 1.456243876526E+02 9.988398626060E+02 4.634300112607E+02 -8.532544015187E+02 2.153964175300E+02 -3.363823564758E+02 6.884466302816E+01 7.575541542127E+02 -8.412391873240E+02 -8.225569661832E+02 4.914421659174E+02 1.332610745949E+04
 6.156791871565E+02 2.514438261484E+02 -3.754256805888E+02 -8.848780752573E+02 -1.324090887310E+03 -2.514836538303E+01 -3.785801440049E+03 -2.025203337148E+03 1.663070619607E+03 -1.595086055427E+03 -1.198420512971E+03 -2.143612437852E+03 -5.681852528943E+02 7.063461702741E+02 5.829201827398E+02 2.756171994689E+02 2.406700246942E+02 -1.018758614203E+03 1.498163725542E+04
 -4.050311904110E+02 -2.382931723734E+02 1.499400349389E+02 -2.295286923572E+02 -5.590086107896E+03 -2.134027967627E+02 -3.183196569914E+03 -3.162760423232E+03 6.330592313697E+02 -8.723176532211E+02 -2.281381613339E+03 -2.784584856199E+03 -3.492670125753E+02 -8.660464852495E+02 2.006680072361E+03 -1.362581031186E+02 -1.572104021404E+02 3.660553222477E+02 1.765795773598E+03 1.659582664592E+04
 -1.819013253687E+01 -5.002832450367E+02 5.522136762865E+01 9.605108869611E+02 -1.682404788328E+02 1.077235772453E+02 8.932086433845E+02 6.724952970102E+02 -5.071442520342E+02 -1.218770756880E+03 -2.842322819048E+03 -3.817598903930E+03 1.367400783821E+03 1.348928348514E+03 -4.949124070924E+03 -1.036190940538E+02 -1.863477322180E+01 5.261428683971E+02 9.710070387270E+02 -1.597620219635E+03 1.796215663294E+04
 -2.263909155354E+03 -1.849573888080E+03 9.859655787976E+02 -4.117692159633E+03 -2.221792575958E+03 8.226982185130E+02 7.834089065855E+01 1.851961141278E+02 2.558214012130E+01 -3.534972805032E+03 -9.679250671691E+00 -1.446475947818E+03 -9.436149496538E+02 1.402151169101E+03 -1.073402037754E+03 -1.677564693472E+02 -7.502059831778E+01 9.518265928120E+02 -3.502331680519E+03 2.484453455103E+03 1.520472260402E+03 2.774070919076E+04
 -1.481993010293E+03 -1.463231729236E+03 7.821436272923E+02 -2.461259842743E+03 -1.574166273599E+03 7.365294489310E+02 3.036079289811E+02 -3.407413580935E+03 -5.817670369474E+02 -2.251390887842E+02 2.284738729609E+02 -5.883510160900E+02 1.091042205949E+03 -1.761880290292E+03 1.189613070379E+03 3.888919607627E+02 2.769624447126E+01 -7.217293403866E+02 2.112856625385E+03 -1.457224860080E+03 -8.671784679815E+02 -5.340480984091E+01 2.701844229243E+04
 -1.611906599034E+02 -6.121207691651E+01 2.669592585288E+02 2.289561626484E+03 9.888381904975E+02 -3.960262143697E+02 3.512740499240E+01 -3.917317564718E+02 -3.151512658142E+02 -7.283062062290E+02 8.257524209256E+01 -5.358435698386E+02 -9.329694324342E+02 1.364096090299E+03 -9.808545664015E+02 6.039455657821E+02 -3.078544814353E+02 -1.557672189456E+03 1.592874392383E+03 -1.088571136711E+03 -7.887379760543E+02 -4.182134355644E+02 -5.670615175521E+02 2.686185127199E+04
 1.272190084488E+02 -3.208342606964E+02 -3.478419456931E+02 -1.143905751984E+03 7.821650613573E+02 2.164434171561E+03 -9.365927580123E+01 -1.036781557789E+01 2.942221352198E+02 -2.476037895908E+03 3.775192369096E+03 8.261607849037E+02 -5.300042644724E+01 -2.088856085935E+02 -1.330231008481E+02 -1.419509847714E+02 -2.914680786862E+02 1.290444733554E+02 -5.515684171786E+02 2.244367564771E+00 1.313627283305E+02 -8.804991154854E+02 -1.590727568510E+03 -7.933745389899E+02 1.346148390924E+04
 9.403943419387E+02 6.821538339837E+01 -6.925339331888E+02 -3.404429737379E+02 -1.319068582142E+03 -2.127472775102E+03 1.050583179476E+02 5.557077809411E+02 5.983158485366E+02 2.359334654727E+03 -4.905680133648E+03 -8.290897960482E+02 3.655638926614E+02 -1.780803814704E+02 -8.574772504406E+02 -1.310818179566E+02 -1.803127362798E+02 -5.674695606565E+02 -3.695248729792E+02 8.461875601659E+01 6.243097504588E+01 -1.349607058064E+03 -2.508519662872E+03 -1.066736815294E+03 -1.331722303628E+03 1.491947009969E+04
 8.899092602171E+02 5.820009095873E+02 -3.131573420315E+02 1.488110540074E+03 -1.939855318391E+03 -3.837930499607E+03 -1.522725796204E+02 6.901033209328E+02 3.070682993470E+02 -4.799569331456E+02 -8.275563412079E+02 -2.697333635349E+02 -4.327758669831E+02 7.383315596861E+02 -3.679082338290E+02 3.071247202921E+02 5.792673451839E+02 -9.054873353005E+02 -3.986933685341E+02 -2.230220675148E+01 1.381428715530E+02 -1.095870135844E+03 -1.867581526168E+03 -5.924542316291E+02 6.706563111634E+02 -2.909044783655E+02 1.425423042851E+04
 -3.030970889478E+03 -4.684284359950E+02 -3.034927327594E+03 -1.183593088575E+01 -2.208775151210E+02 5.465389130884E+02 -2.993444606217E+02 9.378523624277E+02 1.353998464387E+03 -5.374719298048E+02 -3.858024192450E+02 2.097819716002E+01 -6.082583471420E+03 1.899678186274E+03 1.237144529945E+03 -5.949606050780E+02 1.684136417960E+03 7.223506230393E+02 -2.545945216667E+02 4.381214063527E+01 6.997795431084E+02 -3.264960229461E+02 -7.177932883468E+02 6.080920475216E+02 -1.779526187356E+02 -1.249491489881E+02 -4.454031227621E+01 1.683934498053E+04
 -1.410310139963E+03 -4.903892782413E+02 -3.116238637776E+02 5.432195944782E+02 2.141392035632E+02 -4.576514845771E+01 4.547272790115E+02 -2.190622066446E+03 -2.920171046530E+03 1.870978948306E+02 -2.362218445417E+02 3.897883259142E+02 1.551163133770E+03 -8.417101638465E+02 -8.676100271763E+01 1.888613683186E+03 -5.414981536021E+03 -2.158745598983E+03 3.799873670056E+02 -1.594285525352E+02 -4.200138741241E+02 -9.330108302698E+02 -1.816036088681E+03 2.522082213941E+03 1.026568930552E+02 1.443829853161E+02 4.574401320524E+02 -1.947848162460E+03 1.708508353314E+04
 -2.555038064493E+03 -6.064207014327E+02 -3.370335336330E+03 -1.135804381278E+03 -6.850852138722E+02 -3.626247450191E+01 1.183243144824E+03 -1.222973148590E+03 -3.901254472808E+03 -7.455999069989E+02 2.917952534922E+02 -3.211331846417E+02 1.256617507721E+03 4.914273824990E+02 -8.690545371479E+02 1.607101207938E+03 -2.600804924949E+03 -2.415053368445E+03 -6.036012876013E+02 5.136761345924E+02 -2.585950223836E+02 1.603374632306E+03 2.475561371365E+03 -3.009333249822E+03 1.268552406438E+01 -7.583110287786E+02 -5.684081176122E+02 3.869345299016E+02 2.526296147524E+03 1.578942055054E+04
 -4.929215018172E+02 9.313160176589E+01 6.022529114054E+02 5.090176987544E+02 2.627578909716E+02 1.557215603779E+02 -1.232408349388E+02 1.909695177396E+02 -8.223047597561E+02 3.104195731665E+02 -1.163873666530E+02 -3.520856782357E+02 1.413818651340E+01 -2.217937071812E+02 4.322516174338E+02 -3.349125677542E+02 -2.428622998135E+02 2.608141041075E+02 1.337255698155E+02 -8.329789967812E+01 -5.803422851862E+02 -2.272505722107E+03 1.278470935538E+02 -1.973218339797E+03 -1.165102141070E+02 3.069713474587E+01 5.748021341436E+02 -1.008682761745E+02 -2.911927109308E+02 7.373258716085E+01 1.291818518569E+04
 -3.705748148094E+02 -3.019441167099E+03 3.746515732873E+03 -1.061796158759E+02 -2.062721562233E+01 9.665632556317E+00 3.117017298373E+02 -3.870144811498E+02 6.313937944901E+02 -1.602720198380E+02 1.881425903047E+00 4.518909192358E+01 -1.249623759715E+02 1.035054497175E+02 3.299642656362E+02 1.272393540808E+02 1.251380483351E+02 1.721965936196E+01 -1.504421137057E+02 -1.654988418828E+02 2.449389476943E+02 -2.054384517681E+01 1.117797520329E+02 6.675025175314E+01 6.318894471532E+01 -1.883441811338E+02 -2.419318360206E+02 -6.467946615181E+01 -2.266655855878E+02 1.657077620546E+02 -5.983753374036E+02 1.574312003221E+04
 -1.714513458819E+03 3.163680697559E+03 -3.683704680180E+03 1.001653783731E+03 6.555312910365E+02 -6.458159734337E+01 2.204850424930E+02 -1.109089118324E+03 -7.984073563061E+02 1.089932736554E+03 -1.435595906224E+02 1.616017844731E+02 3.448057940047E+02 -9.464822413863E+02 4.804561528995E+02 -1.949423499969E+02 -1.841872527417E+02 7.999263630313E+02 1.084300997166E+03 -4.476139504953E+02 -4.572025671251E+02 -2.280476022223E+03 2.791927736152E+02 -1.990649062179E+03 8.596492371784E+01 7.676167764562E+02 4.385979096513E+02 2.393763074208E+02 -4.973722262092E+02 2.784762803051E+02 1.086947787183E+03 -2.342949526850E+01 1.349758133273E+04
 2.541870371717E+02 9.098950518188E+01 2.317890923450E+01 -4.092222036964E+03 3.120427044694E+03 -3.417879139854E+02 -6.480252557501E+01 4.333111186160E+02 -1.510691019548E+01 -5.787976073804E+02 4.653574741133E+02 -5.250933136834E+02 -2.026600860912E+02 1.097942451764E+02 -3.068030196559E+02 1.166283453821E+02 1.372622235627E+02 -2.568076254227E+02 -3.320022129270E+02 2.389465725359E+02 -1.127154545749E+02 -5.384434214441E+01 -6.270208609828E+02 2.619157467204E+02 -9.509309672008E+02 -5.619274924521E+01 -2.724167688449E+03 -2.123839214754E+01 2.119560415846E+02 -2.974930944312E+02 -3.561511810952E+02 -3.138941387796E+02 3.875080179160E+02 1.356650520104E+04
 1.069268695977E+03 2.937787291039E+02 -5.942922822525E+02 2.071935680179E+03 -3.217346398853E+03 -5.975617414048E+01 -5.574292462494E+01 8.485670665730E+02 9.129798139027E+02 -5.250966979793E+02 -1.876469874915E+02 3.515150945087E+02 -5.924460710477E+01 6.618722089100E+02 -6.671333452408E+02 1.873370122164E+02 4.312074504005E+01 -7.448131750223E+02 -7.612851748649E+02 9.814883152548E+01 7.254313014333E+02 -4.428706173400E+02 -4.160394241271E+03 1.318693764485E+03 5.435076242344E+02 -8.711912481352E+02 3.307101700129E+02 -2.263435143765E+02 6.144536194716E+02 -7.414483562711E+02 -2.215615142327E+02 -5.355625625458E+02 9.696000605478E+02 3.587660637558E+02 1.428408807316E+04
 -6.739434663170E+02 -7.445587284675E+01 1.213592819641E+02 3.032040305120E+02 9.835451286450E+02 3.098703293226E+01 1.103739352430E+02 -9.782129888185E+02 -2.967558490073E+02 7.657322444137E+02 7.999358930654E+00 -1.351657899703E+02 3.487917028447E+02 -8.172192232469E+02 3.089449372397E+02 -1.260051892327E+02 -1.978766972395E+02 4.814468717958E+02 6.276811679099E+02 -4.287645715221E+02 -3.601798340402E+02 3.168706925350E+01 1.438623258346E+03 -6.435790599875E+02 -2.535679323697E+03 2.262369770112E+03 -5.628605217884E+03 1.397892992508E+00 -2.722189744899E+02 5.126885875374E+02 -7.043880452978E+02 -4.332721144509E+02 -4.291544049230E+02 9.763961228035E+02 -3.575752784121E+02 1.376750558070E+04
 -5.743856468323E+02 -4.334058211372E+02 -4.013441329190E+00 -3.765663283310E+02 1.007161983354E+03 3.415049413048E+02 -9.241882613076E+01 -5.431540393684E+02 -2.390505291825E+02 -2.173291254141E+02 3.315678236868E+02 2.694321363794E+02 5.408574558859E+01 -2.674804337814E+02 2.144406813818E+02 -6.213977954207E+02 -1.403245139192E+03 1.634157189404E+03 5.271444260476E+02 -9.672299991565E+01 -2.168291044193E+02 -1.957888158619E+02 2.180818851179E+03 1.282525075982E+03 -6.115074462888E+03 -2.021514974942E+02 -3.507854328709E+02 6.661569764830E+01 -8.358375357531E+01 3.917480338021E+02 -4.129513843622E+02 -6.087014222243E+01 -4.144702965981E+02 -1.020238081481E+03 -1.353280889718E+02 2.159572547606E+03 1.565391575181E+04
 1.345717077123E+03 2.758055523110E+02 -6.172370965149E+02 -1.253637136221E+03 -5.636634276662E+02 1.174735681069E+02 6.617883542114E+00 1.392739789620E+03 7.117642533478E+02 -1.006692124259E+03 -6.316203360207E+01 -3.596557729508E+02 -2.467796754015E+02 9.271523091600E+02 -7.842939509493E+02 -5.524424193377E+02 -3.801056710620E+03 1.796090568734E+03 -1.030775341114E+03 3.283352206208E+02 6.996803592030E+02 1.627260733180E+03 -4.179301183571E+03 -1.891410180919E+03 -4.878634578840E+02 -1.017284166731E+03 -8.559188419882E+02 1.647287182394E+02 -8.452661504657E+02 -9.325226078769E+02 5.480215873123E+02 -1.209130668117E+02 9.526138783115E+02 -7.273413226738E+02 -1.403843210400E+03 1.706150704823E+03 1.173684373940E+03 1.547817725871E+04
 1.340454914082E+02 3.565410378758E+02 -2.758077497445E+02 -2.605384587641E+02 -1.197818144427E+02 -4.866595086146E+02 -1.156199715809E+02 -1.386318454939E+02 1.342340470782E+02 -1.703919111289E+02 -1.733713147504E+02 2.602731128765E+02 1.337920354526E+02 1.707115548824E+02 -3.837916994726E+02 9.736849146395E+02 3.675638051809E+03 -3.054543087458E+03 -2.789332547614E+02 1.268942241027E+02 -6.659101891061E+01 1.053015380424E+03 -2.124222768008E+03 -1.264241834813E+03 2.901989809318E+02 4.773056869932E+01 -1.013062146170E+02 -1.881553027041E+02 7.977617469751E+02 -7.599404814879E+01 -2.790224584748E+02 -7.799167220294E+02 -7.895823484856E+01 2.420486929179E+03 6.719728455206E+02 -4.139252603337E+03 3.107642084835E+02 -1.498076991419E+03 1.633849042915E+04
 3.697495245915E+02 2.550542454513E+01 -4.024271477974E+02 -9.575764857457E+02 -1.549613861922E+03 -1.775253022574E+03 -4.159152939993E+02 2.015747048579E+02 6.766940969983E+02 -5.128156381588E+02 -1.141384982929E+02 -2.764664430325E+02 -1.384920154261E+02 3.968173195892E+02 -2.812021880922E+02 1.002261408313E+02 1.408061607177E+02 -5.553798267356E+02 -6.586394301029E+02 1.039639434709E+03 -1.128509352899E+03 -6.259501431993E+02 -2.868729031200E+01 1.268642017517E+03 -2.106458586127E+02 -2.232228631613E+02 -1.921304554207E+01 -8.182802327564E+01 2.253418748463E+02 -5.539154305715E+02 -7.590834796320E+02 -1.370242863623E+02 7.272313424123E+02 -1.747385136617E+02 -1.000491175669E+02 4.230189799548E+02 2.071799565187E+02 -5.870041517603E+02 -1.570373441396E+02 1.178465443654E+04
 -2.743249456053E+02 -1.735574444502E+02 -2.026561313878E+01 -6.838827717434E+02 -2.545955119527E+03 -3.348459177755E+03 -4.197447902585E+02 -6.750496599970E+02 3.166342576760E+02 2.443383825541E+02 -2.399555642664E+01 -1.552377263040E+02 3.361420017235E+01 -1.848422098279E+02 3.917889710569E+02 -2.110037525720E+02 -1.109896070521E+02 2.823700210525E+02 1.104292652877E+03 -1.888546221367E+03 2.987896139714E+03 1.664474732595E+02 5.843719101941E+01 -2.536818673982E+02 -1.279691581719E+02 -3.046942443061E+01 2.107386907451E+01 -2.087840241548E+01 -1.765412928816E+02 1.774317133862E+02 -1.589477315291E+02 -6.301214627477E+01 -1.406459778377E+02 2.923694214663E+02 -4.099723876556E+02 -4.826689152616E+02 -1.362489964638E+02 2.424795112660E+02 -1.609909595641E+02 -5.669659989654E+02 1.116241000015E+04
 -6.955713692472E+02 -2.436726764146E+02 2.331286767596E+02 -1.613685426680E+01 -2.613257708955E+03 -4.169758664904E+03 1.860621728580E+02 -7.433646952116E+02 -6.040067856606E+02 4.994423130751E+02 -2.818191905599E+02 -4.406785721542E+02 8.716315790553E+01 -7.685334330769E+02 4.759020228451E+02 -3.124395397801E+02 -2.561095860360E+02 8.692913576994E+02 -2.565092652470E+02 2.991364074838E+03 -5.773406607339E+03 9.419142169078E+02 2.461703397187E+02 -1.703904129875E+03 -1.041455221825E+02 4.998181329500E+02 3.425198740158E+02 2.198483885663E+02 -4.407118014170E+02 6.650673858054E+02 -3.419055163740E+02 -3.631891736021E+01 -8.180748229628E+02 2.250029537975E+02 6.150144607651E+02 -6.744438223829E+02 -4.511979968209E+02 9.255335604384E+02 1.544723943000E+02 -1.355761433851E+03 1.399755942347E+02 1.321462638556E+04
 -2.345823001649E+03 -6.170217571761E+02 3.034891575556E+03 -1.986402071849E+02 -4.044839025580E+02 -4.081162984930E+02 -8.375304040602E+02 6.810636963999E+02 -1.912986588008E+03 4.385579165842E+02 -6.792433072039E+01 4.596949153861E+02 -1.530468256650E+01 -8.200875998869E+02 3.268983931204E+02 -1.575866022247E+02 8.046815722004E+01 6.729152328248E+02 -4.967208753556E+03 -6.832208231286E+02 -2.278169701354E+03 -2.849185583957E+02 -1.148495432533E+03 -1.536606069429E+03 9.443751521308E+01 8.272123553695E+02 5.053494204250E+02 -1.801229124301E+02 -2.408881077953E+02 4.426146619087E+02 -3.452372128023E+03 3.183106384286E+03 -1.362031051084E+03 -2.982650682328E+01 8.879180443401E+02 -3.601590795906E+02 -1.848559193904E+02 4.787048909809E+02 5.449968682831E+02 -4.632817990033E+03 -2.692764385728E+03 1.202462029665E+03 1.784883591695E+04
 -1.052194489685E+03 -4.454841903126E+02 6.720301018545E+02 2.945250340434E+02 2.736244916624E+01 -1.056629528862E+02 1.890853568428E+03 -3.417952760049E+03 2.008727918175E+03 8.033939975664E+02 -8.043010097146E+01 2.340217133855E+02 5.864317598242E+02 -6.432986767002E+02 6.837010425308E+02 -3.755272221576E+02 -1.574172125617E+02 9.851689933708E+02 7.129530134846E+02 -3.457779658013E+02 -8.701926350998E+02 -6.395147210276E+02 -2.104240993580E+03 -3.107029092152E+03 6.123665180683E+01 5.901824289468E+02 5.951711219994E+02 1.564108091945E+02 -3.876719289640E+02 7.634546168589E+02 3.097843680221E+03 -3.573537346606E+03 -5.285829440236E+02 -2.853097458748E+02 6.448216222712E+02 -4.496385973617E+02 -6.695686018104E+02 7.676739026597E+02 2.652496560494E+02 -2.052795240177E+03 -1.701165427470E+03 2.462989955579E+02 -1.133385493345E+02 1.671569589799E+04
 1.832700031716E+03 -1.360066898865E+01 -3.747627961371E+03 4.188743868095E+02 1.240984403647E+02 -1.885642699398E+02 -1.950671271546E+03 2.634613822191E+03 -3.228654988588E+03 2.542194272514E+02 -2.120611261630E+02 8.357636494574E+01 -6.323166397432E+02 -5.169023033313E+02 3.611354860748E+00 -2.966143421066E+02 -3.322234114280E+02 4.314610869508E+02 -1.239368610420E+03 -1.307833873858E+02 -9.936133803145E+02 -7.229588114624E+02 -2.000219300521E+03 -2.948317915227E+03 -8.865468884278E+01 1.811585734028E+02 3.073887920180E+02 -2.946312462636E+01 -5.744579013838E+02 -5.054321048402E+02 -5.003669266488E+01 1.231310538403E+02 -3.354312269614E+02 3.160697526738E+02 5.312386151095E+02 -3.055249008310E+02 -3.575222637439E+02 6.678651102973E+02 -1.986298509074E+01 2.475174621691E+03 1.206057517632E+03 -1.395492441414E+03 -4.174391222009E+01 -1.968501572942E+03 1.383128434203E+04
 -9.814992508514E+02 -8.508768001431E+02 8.075625476678E+02 6.622699748842E+02 4.539609879096E+02 5.020905629039E+01 -6.354499092977E+01 -1.228473464337E+03 -7.129623967641E+02 1.111430444106E+03 -1.523065325060E+02 2.370083438937E+02 2.341249984339E+02 -1.245581214470E+03 8.613609867815E+02 -4.021434972884E+02 -7.105307360526E+01 9.450777020593E+02 8.389659641370E+02 -6.359248126438E+02 -5.885531063380E+02 -2.422099167834E+03 2.404336287465E+03 -1.225796007414E+03 -3.305360121960E+02 6.386276718113E+02 6.007070946347E+02 -1.148752459881E+02 -5.028682376421E+02 8.821161593275E+02 -3.622760671647E+02 9.464938472165E+02 -1.241288434715E+03 -5.814729040184E+03 -1.544909923804E+03 -8.803774008050E+02 -1.985505650455E+03 7.771261323212E+02 -2.495654507797E+03 3.030859135592E+02 -4.478965946356E+02 -1.028514309569E+03 -6.096986984772E+02 -1.061909829460E+03 -5.672604717041E+02 1.445435835515E+04
 7.982052169354E+02 -6.772757056949E+02 1.503143940541E+02 -4.247985070578E+02 -4.954971839259E+02 -1.394644084359E+02 2.502183066552E+02 2.558621286740E+02 3.049547257329E+02 -5.395985408955E+01 7.503839241363E+01 3.867096061142E+01 2.329973725439E+02 3.009770177421E+01 -3.928619465726E+02 2.811649009423E+02 -5.743476454616E+01 -2.319949554675E+01 -4.231418667798E+02 2.104311975314E+02 1.142455494847E+02 1.393574477814E+03 -1.958904334144E+03 4.580736640982E+02 -1.936490978289E+02 -2.740433881270E+01 -2.515678310510E+02 -9.911431625070E+01 4.115059634512E+02 -9.103739669466E+01 5.838090424208E+01 -5.749145821525E+03 -2.688740120410E+03 -3.035521212361E+03 -1.506299301553E+03 4.376128106364E+02 -4.100570896241E+02 -7.761263482335E+02 -8.400978974431E+02 1.589939579654E+02 -1.988237506736E+01 2.552092472342E+02 1.228204348581E+03 -2.400690702118E+02 -1.245910401711E+02 1.275740188473E+02 1.421187564261E+04
 -3.697436809359E+02 7.551371089710E+02 -4.612167494346E+01 7.184619667403E+01 3.469279264695E+02 1.294085850108E+02 4.533898873307E+02 -2.383855147921E+02 -3.503204205432E+02 2.481633367889E+02 -2.043548407588E+02 -1.862836919175E+02 -1.589816336973E+02 -1.970702942420E+02 1.355024576981E+02 -3.121681061733E+02 -1.414372416197E+02 -4.305895137866E+02 2.734046992194E+02 -1.463551439539E+02 -1.772941899052E+01 -9.643449885629E+02 6.883156318764E+02 -5.367774531402E+02 -9.137308182184E+02 5.780309365447E+01 -1.794772692240E+02 -7.399153753759E+01 -1.528790388921E+02 2.378142957929E+01 2.654211370498E+02 -2.836143420377E+03 -1.306717315617E+03 3.314528594739E+02 1.344259703906E+01 -1.130785838222E+02 -2.782029844236E+03 -6.878671863694E+02 -4.667762908699E+03 3.365390431021E+02 8.039418129824E+01 -1.497684452831E+02 -1.298162264005E+02 -1.144363601339E+02 -1.251648409541E+02 1.031639775717E+03 -6.017125973093E+01 1.258426825879E+04
 6.048618691475E+02 3.635270816668E+02 -5.357052191144E+02 -6.373203950817E+02 -5.062072629669E+02 1.284859094470E+03 1.899913163644E+02 1.000942326038E+03 4.042454636556E+02 -3.922785832722E+03 6.805252186096E+02 2.285317320728E+03 -5.853842614102E+02 2.137788918326E+03 -9.673951946382E+01 -6.670140212020E+03 -3.561404287357E+02 1.054458151872E+02 -7.391880278021E+02 5.373196663287E+02 6.877276912031E+02 -9.240731668331E+02 -8.352429048957E+02 -2.076617627873E+03 -4.914389456898E+02 -1.723010292664E+03 -6.154747257252E+01 -2.225355418244E+03 -2.421699177887E+03 -1.270553239478E+03 6.561085967392E+02 4.011624500250E+01 9.702393093247E+02 -1.685053695442E+02 -9.487470366570E+02 4.374693830120E+02 -1.908972372278E+03 1.619408652738E+03 -1.750025351734E+03 -4.014006642080E+02 1.586468310719E+02 7.272907989441E+02 -3.391678001773E+01 6.835839767626E+02 4.452301857613E+02 5.168278818583E+02 -7.403053837154E+02 -1.075372792100E+02 1.712556658210E+04
 1.589416319460E+02 3.601579818229E+01 -2.018940337237E+02 -2.786222168667E+02 -5.746813939805E+01 2.530319073266E+02 -1.827627436038E+02 -1.381471604568E+02 1.246963880552E+02 1.077869717046E+02 1.862519005140E+01 -4.084367497230E+02 8.131069212496E+02 -5.312818966862E+03 -2.593583387863E+03 -3.081445017235E+02 1.767269103886E+02 -2.372917727686E+02 -2.170516795448E+02 -1.651084125240E+02 -2.350813674731E+02 -2.960114499848E+02 1.720619773527E+01 -5.428747115889E+02 -7.172384598959E+02 -4.717411683362E+03 2.784081230152E+03 -3.032850790840E+03 -3.273629518279E+03 -1.111648667644E+03 1.507920992686E+02 -4.052355564817E+01 2.143510456223E+02 2.668103882281E+02 -3.668456818892E+02 2.047893030125E+02 2.453950329348E+03 -2.661881007498E+03 1.700737941494E+03 -1.356166892493E+02 4.759621122557E+01 1.336708502710E+02 9.803036101918E+01 1.579214879931E+02 4.055851137056E+00 3.129494492068E+02 -4.527742950784E+01 -9.578118746480E+01 4.705654549517E+02 1.646868321095E+04
 1.176797846309E+03 3.543927394902E+02 -5.179861232155E+02 -1.079939350556E+03 -4.443760493610E+02 -8.346629380981E+02 -3.209478268289E+02 6.509216869841E+02 2.284008537061E+02 1.959958469387E+03 -3.035182401133E+02 -2.832197680311E+03 3.512811390574E+02 -1.258419358826E+03 -1.645576124273E+03 1.800232752906E+03 3.323697079366E+02 -1.225739415794E+03 -8.261589607552E+02 6.691854403064E+01 -2.087920432116E+02 -1.503797143624E+03 -8.437495638880E+02 -4.653046549147E+03 7.113122779259E+02 2.241614305999E+03 -2.429388723084E+03 -8.723165021372E+02 -3.799350975569E+02 -1.118237674131E+03 3.294093633853E+02 -1.270344349329E+02 8.265638260896E+02 -5.249153404194E+02 -5.959541958990E+02 1.843635973470E+02 -1.368043485256E+03 3.821759653611E+02 -1.530019046885E+03 -6.017754948069E+02 1.311454179867E+02 7.227892430761E+02 7.150910792484E+02 7.687710899485E+02 4.607022102582E+02 1.074557219605E+03 -5.648618387064E+01 1.253956168797E+02 -1.267014290224E+03 -3.659605937454E+02 1.425898625473E+04
 -1.039992284551E+03 3.883057834889E+02 6.937585936951E+02 9.891674977703E+02 5.341530429546E+02 1.482304939164E+01 -2.454249801002E+02 -7.870114411873E+02 -5.905296332207E+02 9.501625716474E+02 -7.250280916361E+01 1.855723887434E+02 1.175906235321E+02 -9.381613474163E+02 5.993369339285E+02 -1.917785231975E+03 -5.180525714968E+02 -1.683641776668E+03 7.962908872837E+02 -4.069385561766E+02 -4.940510494429E+02 -5.446807819458E+03 6.585055476067E+02 1.285340404744E+03 -9.955419468035E+01 6.243832183319E+02 6.546954983193E+02 -2.681681380600E+03 2.068607142174E+03 -5.869526065373E+02 -6.273338131700E+02 2.903688656195E+02 -4.315078092683E+02 -1.531781919374E+02 6.015578544803E+02 -4.725422476080E+02 -2.512043742094E+03 -1.696506721234E+03 -4.670501304304E+02 3.716150497933E+02 -2.653538378340E+02 -8.000750497387E+02 -5.228560627072E+02 -6.600131783183E+02 -3.292144985930E+02 -9.178852827955E+02 -3.162513076633E+02 2.692183387797E+02 -3.011429463544E+02 2.495696679655E+02 4.511878281482E+02 1.379215919099E+04
 1.240113302606E+02 -6.319347137541E+03 -1.060380906936E+03 6.779120421764E+01 1.193922615331E+02 -8.327113309729E+01 2.608074842275E+02 -5.241307548686E+02 8.859146099973E+01 1.145734255969E+02 -1.016153343600E+02 1.280443159086E+02 3.832147235848E+02 -1.921704402908E+02 1.657692798735E+02 -3.019805126917E+02 -1.330038281355E+02 -6.286634758978E+02 1.065997820344E+02 -4.286774174378E+01 7.724860343869E+01 3.532428102109E+02 6.535974257285E+00 -2.949741017739E+02 -1.617232703143E+02 2.693333943456E+01 -1.781278590707E+01 2.453856265380E+03 -2.528629910784E+03 1.757491754190E+03 -4.771740482514E+01 -2.178028738012E+02 -1.053687384603E+03 -2.520770589674E+02 -1.295342400535E+02 9.189662389741E+01 -2.904041197320E+03 -3.541858140839E+03 -1.167731484312E+03 5.465736894505E+01 -4.835521989946E+01 -8.576580918639E+01 4.919641635913E+02 -3.676502610406E+02 -5.080566708352E+02 -2.753415445736E+02 -3.284151675563E+03 3.322874091486E+03 -4.666298688821E+01 -1.239194184700E+01 2.529602109792E+01 -1.348162086539E+02 1.729586259026E+04
 -3.209843702324E+02 -1.590973810256E+03 2.207870317449E+02 -2.327462955963E+02 -8.275298603060E+01 -2.851053951741E+02 5.863231941923E+02 -5.267090787210E+02 -2.055999183231E+02 2.779288022783E+02 6.740808099098E+01 1.277859253443E+02 1.075960919645E+02 -2.558008686229E+02 -1.490933724322E+02 -3.156716340223E+03 -2.624734669659E+02 -5.747367415323E+03 1.354945215560E+01 -1.099166577070E+02 -1.284296079555E+02 1.708255709528E+03 -2.116931993112E+02 -5.947281067633E+02 -2.071335758436E+02 2.110963766861E+02 -8.778305533370E+01 -2.100893532837E+03 1.863167162226E+03 -1.151381882596E+03 9.053287628011E+02 -1.010937330040E+03 -5.953951996816E+03 3.193526933514E+02 3.263339834923E+02 -7.228863600438E+01 -4.921264611881E+02 -8.647614927138E+02 -6.063457216641E+01 1.121671466784E+02 -8.911351500376E+01 -1.528293849423E+02 8.296115000785E+02 -3.473661233838E+02 -7.832540801034E+02 4.431499838551E+02 3.508303734437E+03 -3.437448137773E+03 -8.375597575134E+02 1.764506115025E+02 -1.721757673798E+02 1.741023347184E+03 -8.734699543077E+02 1.912610929978E+04