#BIOSYM hessian 1
@Type: Hessian Update
@Units
 distance: 	A
 energy: 	Kcal/Mol
#header
@natom 19

#label
L1      L2      L3      L4      M5      L6      L7      L8      L9      L10     L11     L12     L13     L14     L15     L16     L17     M18     L19

#element
Li Li Li Li Mn Li Li Li Li Li Li Li Li Li Li Li Li Mn Li

#matrix
57
 3.673591080882E+01
 -2.175970902457E-01 3.718417247881E+01
 5.577249092213E+00 8.438488203730E-02 3.693376720473E+01
 5.056465112799E-01 1.962604247508E+00 -1.338477434972E+00 3.420327125377E+01
 6.322490586975E+00 -1.594284802739E+01 2.997232571617E+00 5.565536883603E+00 4.172081001904E+01
 -4.863657796414E+00 9.453778872424E+00 -4.137713565960E+00 2.387998657992E+00 4.375522066186E-02 3.613168700680E+01
 2.686633416842E-01 3.030294613087E-01 -5.493920506649E-01 -1.497142235154E+01 2.018621752561E+00 -3.964491199594E+00 3.849377523165E+01
 1.072841836742E+00 1.589156347567E+00 -5.929618736738E-01 -1.065672335631E+00 -2.217718697334E+00 1.115888934907E+00 -6.155673527539E+00 3.877796287068E+01
 -1.566613605861E+00 1.997328678832E+00 -6.108809201352E-01 -5.152229198108E+00 -2.551253215795E+00 2.378811568622E+00 -1.705475944789E-01 1.748531764687E+00 2.989385957599E+01
 1.420791122747E+00 -2.630475294480E-02 -2.000271794584E+00 1.136213141051E-01 -4.230285595530E-01 1.832144473929E-01 -3.284018707801E+00 -2.860225882843E+00 5.281071451695E-01 4.012612093998E+01
 -1.705236906358E-02 -3.305480376921E-01 1.823086214529E-01 -8.372269049826E-01 9.032266195513E-01 -8.771777828800E-01 -4.666341615454E+00 -1.174124602128E+01 2.713139068477E+00 2.929564276241E+00 2.591946322782E+01
 1.225830069184E+00 4.637272565611E-01 -3.371113484250E-01 -1.186600983481E-01 -7.112870717736E-01 2.471801073391E+00 8.813469509174E-01 3.982028087879E+00 -2.559350572512E+00 -1.805498119346E+00 -1.394398697980E+00 3.204148004367E+01
 -6.424941829690E+00 7.383726716604E-01 -6.986414015457E+00 -7.285689345720E+00 -5.066995487166E+00 1.800809931289E+00 -1.109590523116E+01 1.055313408182E+01 2.205358376283E+00 -1.485671278112E+01 -6.453588972880E+00 5.334487930338E+00 1.171961563523E+02
 1.868109737353E+01 -1.227134480857E+01 2.967293379775E+00 7.142564542129E+00 -3.824213277811E+00 -1.012095433850E+01 4.462735054873E+00 -1.405693891604E+01 4.193451069225E+00 4.520575150553E+00 8.167921163172E-01 1.650454035117E+01 2.749294766229E+01 2.067999478599E+02
 -1.238633375763E+01 -1.231866830638E+00 -1.073639508685E+01 -7.662987672502E+00 -2.413357324140E+00 -8.040561365182E+00 -3.276119343123E-01 3.129165189382E-01 -7.982931219779E+00 4.302605008564E+00 -1.592119702373E+00 -8.693881263713E+00 -1.265377898940E+01 -2.873922053977E+01 1.229699924236E+02
 -1.855394355916E+01 1.033665515342E+01 4.491314307516E+00 -1.176876742816E+01 -1.098048426462E+01 1.148290794858E+01 -8.094985895615E-01 -1.277526715459E-01 -7.461651288927E-01 -6.290619534781E+00 -4.157342071708E+00 -8.718808313081E+00 -1.525123969606E+01 -4.799201011975E+01 1.301656965354E+01 5.271086609295E+01
 -6.305365148454E+00 3.708527921850E+00 -2.374031926623E+00 -1.375210578205E+01 -1.220515841591E+01 1.178728394092E+01 2.218394090100E+00 -4.605607196983E+00 7.821852300250E+00 -5.524518769830E+00 -2.211922230406E+00 -8.985781454536E+00 -1.061560447371E+01 -5.051239654970E+01 2.764674253830E+00 2.756771846032E+01 5.733742189982E+01
 4.106388775321E+00 -4.356720296562E+00 -1.099430319610E+00 5.514916062282E+00 7.742276751187E+00 -9.718817055818E+00 3.506245446991E-02 1.526268334330E+00 -1.016316260455E+01 -4.431207410567E+00 -9.303563873617E-01 -5.778623361525E+00 1.132480783551E+00 -3.439514223195E+00 -7.025436752350E+00 -1.202978684191E+01 -3.147767294626E+00 3.665035954358E+01
 -6.834482060380E-01 1.461386523619E+00 9.012845323052E-01 -1.200695709304E+00 -6.636604281093E-01 -3.026252261911E-01 -3.443520154046E-01 -3.482219241942E-01 9.861465703039E-01 1.972699302781E-01 7.547762936902E-01 2.105232786046E-01 -1.658452001818E+00 -6.772110851737E-01 -7.647223907479E-01 1.716144540102E+00 6.094963607316E-01 4.495098348868E-01 4.308982045932E+01
 1.393085449786E+00 1.150790182768E+00 9.939151852995E-01 1.538907959583E+00 -3.958381385968E-01 7.811265110958E-01 -1.046922976532E+00 -5.721411060883E-01 2.032686185476E-01 1.908062248524E+00 7.742848369837E-02 2.771833164889E-01 -1.754157052422E+00 5.703764379298E+00 3.993869814798E-01 -1.330546052766E+00 -1.518973804392E+00 -1.261828285407E+00 -2.194552688525E+00 3.181555117740E+01
 -1.603842468116E+00 1.594603995274E+00 2.115612855577E+00 -9.861884861573E-01 3.625412535612E-01 6.665817648580E-01 -1.020579767394E+00 6.779005161320E-01 5.199585403173E-02 1.727164638159E-02 -4.418125087515E-01 -8.993149178769E-01 9.590541483864E-01 -6.118451402936E+00 1.608488734322E+00 2.309409362738E+00 2.200748034931E+00 8.667792707660E-01 -6.335980330494E-02 -9.874932705135E-01 2.549724516566E+01
 -2.352265133374E-01 -2.307647129842E+00 -1.036631188432E+00 4.741572078926E-01 1.815413580478E+00 -3.271369063121E-01 7.007330040992E-01 8.123106247599E-02 -3.154234395457E+00 -3.864387979657E-01 -9.124947918886E-02 -6.117686867863E-01 -2.347524303423E+00 -3.042317570702E+00 3.860282901804E+00 -2.894061760852E-01 -2.329546934996E+00 1.357891333772E+00 -9.519591720602E+00 -8.601870101445E+00 -1.483356007816E+00 3.353840368450E+01
 -4.056435788448E-01 4.900814344929E-01 -4.899890286335E-01 1.565265331028E+00 1.438602663657E+00 6.631832197955E-02 1.038742076931E+00 -5.986485714592E-01 -1.447099098143E-01 -8.891081916255E-01 -6.507688249938E-01 -3.371678879470E+00 -2.344253591201E+00 -1.840863337500E+00 8.617462135897E-01 -7.266975774713E-01 -2.146912819676E+00 1.251633015426E+00 -7.019620965852E+00 -6.957721821049E+00 -1.236914378037E+00 -8.880950248001E-01 4.308822839405E+01
 -2.084467721607E+00 4.181397302629E-01 -1.958697884077E+00 -2.067444722316E+00 -3.014218989085E+00 3.563114737568E+00 1.620375570209E-01 4.698772271192E-01 1.239192770520E+00 2.707598123632E+00 2.282610249339E-01 1.671437288273E+00 1.027285309038E+00 5.604410664298E+00 -3.488075212712E+00 2.854441929319E+00 4.276411132216E+00 -3.546807306246E+00 -1.033968660988E+00 -1.071437915814E+00 -1.129089040294E+00 -3.718244531329E+00 3.016737707893E+00 3.354248315030E+01
 2.904344230901E+00 1.006792838978E-01 -1.323939566662E+00 1.702494333639E+00 -1.401768465560E+00 -9.551885868868E-01 7.066389487057E-01 -1.364606326326E+00 2.014741191025E+00 -1.352591322960E+00 1.208660898267E-01 -6.920065831641E-02 2.190264463052E+00 9.583637855107E+00 -1.809019460938E-01 -8.900711767488E+00 -3.148914782034E+00 1.421129578094E+00 -4.604573296906E-01 -1.345285659346E-01 -2.406272443909E+00 -6.023122427686E+00 4.674875610366E+00 -3.944340071026E+00 3.616490351002E+01
 3.239439773368E+00 1.255757543891E-01 -9.854114051651E-01 1.026244820369E+00 -7.261404391591E-01 8.900416936788E-01 -2.500032438345E+00 7.348744697197E-01 -8.677443104752E-01 9.934954213870E-03 1.287885850862E+00 1.290532121681E+00 1.601274801394E+00 1.006359808281E+01 -9.507322170168E-01 -3.785020507445E+00 -2.275504674331E+00 9.684929041562E-01 -6.139253263847E-01 -9.396748753809E-02 -6.785843389349E-01 6.862882429038E+00 -2.787522701664E+00 3.661957441406E+00 5.722803429442E+00 3.258927970167E+01
 -2.082767738548E+00 1.168404484619E+00 -9.559190106025E-01 -1.802042292184E+00 -1.842467827964E+00 2.452865949376E+00 -2.400364099738E-02 -1.109840812088E+00 -7.201999117747E-03 -6.596560762616E-01 1.110586610227E-01 1.079485498944E+00 1.145275104596E+00 -1.196374479416E+00 -1.950733130040E+00 4.093997072929E+00 2.944635257804E+00 -8.069851645569E-01 2.171685535527E+00 -7.869810820801E-01 7.578031390601E-01 -4.030193160802E+00 1.699194955606E+00 -1.303072727795E+00 5.985316853234E+00 3.320512879362E+00 2.958856211445E+01
 1.406282774562E+00 1.593994416752E+00 -9.541872719608E-01 -3.132691940301E+00 -1.567831238740E+00 1.321484490800E+00 1.555650576021E-01 -9.628317616759E-01 1.597187831673E-01 1.837685773521E-01 6.375044912770E-01 3.349200946307E+00 4.695999869937E+00 -1.937268531849E+00 -1.822005131164E-01 1.831485224212E+00 4.911797886368E+00 -1.463396870576E+00 9.996324850176E-02 5.419375497335E-01 -1.169771446428E+00 -3.369455988185E-01 5.987789765377E-01 1.536629022885E+00 -2.068032715543E+00 -6.164549571798E+00 1.262920877585E+00 3.318686052757E+01
 -1.678960103179E+00 5.156514906807E-01 1.051968599237E+00 -9.747816984392E-01 5.172347995715E-01 -7.052988471199E-01 1.139809206290E+00 -5.192130420140E-01 -1.523250347228E-01 -1.998500140395E+00 -2.104829762428E+00 -3.920463631289E-01 -1.411736757952E+00 1.154856755129E+00 -6.761604392046E-01 2.551953634029E+00 -3.908393225248E-01 1.299720177863E+00 -4.605432502751E-01 -4.340275632890E-01 1.598960729862E+00 1.168121451859E+00 6.788635586378E-01 1.266543194791E+00 -6.189197434264E+00 -1.226886236170E+01 1.689442168602E+00 -2.097834886275E+00 3.323538571707E+01
 -7.454261117337E-01 1.357173621805E+00 -2.532708142008E+00 2.670814338546E-01 -1.628172761976E+00 -1.610991294266E-01 -2.179464637974E+00 1.929797232957E+00 -2.327992019572E-03 -1.862189038726E-01 -8.513585621487E-01 -7.931380776656E-01 1.582701537132E+00 7.906677266548E-02 3.036182189347E+00 2.397402223507E+00 -1.166752166854E-01 8.159789116497E-01 3.623764304056E-01 1.083623269330E-01 8.258699368635E-01 -3.209475968122E-01 -2.131187170840E+00 1.692709941690E+00 -2.075726189299E+00 5.461275058518E-01 -1.274370981812E+00 2.957636988745E+00 -4.830960174005E+00 4.082029589973E+01
 8.785178770730E-01 2.718281216472E-01 1.821960268504E+00 1.394083772567E+00 6.076740838455E-02 9.672659488531E-02 -1.283758617213E+00 2.373017615482E+00 -1.017210000109E-01 1.172845827816E+00 -8.998054432524E-01 -5.263733582653E-01 -1.041646414124E+00 8.001508917898E+00 -3.783177329635E+00 -1.027560691264E+00 -3.835943154613E+00 5.837880623615E-01 -1.552884583899E+00 3.964172720292E+00 -1.645347707531E+00 3.707935252224E-01 3.031513440749E-03 -9.021501190277E-01 9.110369938143E-01 3.120073450160E-02 7.177258214472E-01 -1.252049381274E+01 1.279634354026E-01 -3.474415780265E+00 3.575880331390E+01
 1.052741743624E+00 -4.540208606885E-01 1.178990038228E+00 -1.341970864434E+00 -6.620141492200E-01 -1.976383656593E+00 1.571496395079E+00 7.541447378790E-01 -2.354494234166E+00 -3.258218117075E-01 -1.630780750004E+00 -1.020525685672E+00 -2.667456287370E+00 -4.865962748593E+00 1.114687135198E+00 -5.432423940513E-01 1.124275213829E+00 4.140151876845E+00 9.976046922253E-01 -1.164437901203E+01 3.490695849353E+00 1.135986010909E+00 2.310117634112E+00 -6.764942704111E-01 1.100161710573E-01 5.111420400937E-03 -2.770737200417E-01 -9.907552450454E-01 5.484780198853E-01 -1.920740516133E+00 5.616130921348E+00 3.634337661620E+01
 2.231228446110E+00 -8.715749591054E-01 -2.348531020193E+00 1.674007794579E+00 2.646985525657E+00 -4.965197137560E-01 -8.990606777463E-01 -6.057491551577E-01 -7.487569338115E-01 3.618460736514E-01 1.175824142349E+00 -7.189637837209E-02 -1.879218874431E+00 2.168891332537E+00 1.714512892833E+00 -3.905005148851E+00 -2.936556022036E+00 1.044309575968E-01 1.244200713728E-01 3.892346284554E+00 -2.553188386962E+00 -6.625358097499E-01 -4.102380245097E-01 8.232150727128E-01 -5.015500579662E-01 4.165807405800E-01 -3.180838518582E-01 -7.330313280573E+00 -3.059479511971E-02 -4.396779726078E+00 -1.483701734598E+00 -2.581404251796E+00 2.973245367229E+01
 4.199707675503E-01 -3.386221822850E-01 -3.876783652342E+00 8.700853449186E-01 1.318440361734E+00 7.738084272571E-01 -1.802444918983E+00 1.882866517810E-01 -7.294895991001E-01 -7.423386903697E-01 2.550178762748E-01 1.610331989457E+00 -6.167911837105E+00 8.359297753949E+00 -1.274128032807E-01 -3.669494830057E-02 -9.873891290546E-01 6.014132289540E-01 -5.671482144062E+00 -2.035412002170E-01 7.409781119280E+00 -2.029402855102E+00 -7.994114143241E-01 2.154203649315E-01 -7.275647743866E-01 1.730689935306E+00 -1.029282564695E+00 -2.166087917786E+00 -1.477263164727E-01 -8.667288109485E-01 2.602876434075E+00 -3.690070085392E+00 8.544254017354E-01 4.216539232707E+01
 2.514107453513E+00 -1.006734421286E+01 -6.226119361990E+00 -8.131563856669E-02 4.307504788267E-01 2.486261443812E-01 7.357918773090E-01 -3.469157842144E-01 9.906576819606E-01 1.649865607523E+00 1.005416632480E+00 6.369871876235E-01 9.793712783566E+00 -9.803236565628E+00 1.800607736749E-01 -1.848543539013E+00 9.191537795101E-02 -7.047322912090E-01 -2.912352707277E+00 -2.063490533320E+00 1.875292302450E+00 -1.731112961462E-01 -1.586751014171E+00 -4.482498899475E+00 -1.160770647784E+00 7.010830673579E-01 2.381062493876E-01 1.150027970846E+00 -2.561052236884E+00 5.557056429091E-01 8.948131088917E-02 -5.938396023632E-01 -1.298862616497E-02 -5.525301143972E+00 4.206114495691E+01
 7.677291864786E-01 -9.083530108213E+00 -5.001099058204E+00 1.073139238857E+00 1.718172642169E-01 -7.331814995154E-01 2.359398596425E+00 9.067592148624E-02 6.285974235637E-02 5.939675176865E-03 -8.583998887640E-01 8.850013505568E-01 -3.415137215648E+00 7.961866140402E-01 -6.711687299999E+00 -6.881433377897E-01 -1.113008640748E+00 -5.841972402515E-01 6.974587273827E+00 1.478010108590E+00 -8.544987137963E+00 7.513540961883E-01 -5.516607108787E+00 -1.265860678673E+01 -2.105275148765E+00 -4.666099790797E-01 -1.310804832358E+00 -1.251893154513E+00 -4.966456811808E-01 -2.494091216842E-01 2.630087466431E-01 -9.433555066542E-01 -1.983316001559E+00 -3.943601762950E+00 2.289736596659E+00 5.170062655802E+01
 1.565975672596E+00 9.791773143679E-01 4.416623545756E-01 2.136713568418E-01 6.935348017982E-01 1.389261186757E+00 5.634901877068E-01 5.269247447854E-01 2.999209220257E+00 -4.628023982659E+00 5.396799855960E+00 5.404060908173E+00 -1.846064482020E+00 -9.483261031253E-01 -8.711178819544E+00 -2.385397697317E+00 2.798264699352E-01 -8.405184198072E-01 6.657447989864E-02 -1.548490777248E+00 -7.281705477309E-01 -1.064384488876E+01 3.135477362558E+00 6.510270798649E+00 1.845938082296E+00 4.661256358277E-01 1.038386058650E+00 1.790100393509E+00 5.667173166141E-01 6.964804371404E-01 -7.547573267432E-01 -1.899875655310E+00 1.182415878691E-01 -1.047632872736E+01 1.293977130137E+00 -4.432186238347E+00 4.074275300206E+01
 -5.830895577661E-01 1.308850898848E+00 -2.419714432725E+00 8.112131982128E-01 -8.194725681383E-01 1.864339853101E+00 -4.630843020948E-01 1.423308436450E+00 1.239983957687E+00 5.732502682684E+00 -6.279157231380E+00 -2.798771182714E+00 -4.184156784185E+00 -1.327295117829E+01 -4.926135567375E+00 2.490937854888E-01 3.940708207111E-01 -3.850946991243E+00 -5.342808308281E-01 1.285877348233E+00 1.048529823429E+00 5.146244663393E+00 -2.977185478823E+00 -1.749599215522E+00 -2.594009771370E+00 -3.413444094663E-01 7.996697202349E-01 1.098405789527E-01 -7.981263839778E-01 -3.272552487448E-01 -1.800452643185E-01 -1.688065436404E+00 -1.805075172148E+00 6.551997302586E-01 -1.187738744203E-01 -1.104742280817E+00 2.593897465110E+00 4.679833195902E+01
 -6.142952917202E-01 -6.608505326477E-01 1.044508651418E+00 -1.133158008345E+00 4.144857063309E-01 -2.066955518496E+00 -5.668425037953E-01 1.886675027825E-01 4.006047484816E-01 2.016407421590E+00 -5.537776208056E+00 -6.681857831881E+00 2.960374623824E+00 -4.947136770465E+00 -2.885820151580E+00 7.398752931374E-01 -7.695607220869E-01 1.135877919801E+00 -1.058825984483E-02 1.713618009751E+00 1.815712425486E-01 5.500408124304E+00 -2.958100623013E+00 -6.726392758745E+00 8.833127298607E-01 -6.035705598132E-01 -1.122355406752E+01 1.396760849716E+00 1.828267587277E+00 1.044432075545E+00 -1.439389031399E+00 1.357295790638E+00 3.983656403887E-01 -5.063956388144E+00 -2.015409976954E+00 -9.538798783851E-01 -6.099698145611E+00 6.070403339872E+00 4.928803252838E+01
 -5.997235437523E-01 -5.390567111007E-01 1.101208208599E+00 1.494522445176E+00 -1.053120618078E-01 4.441114875055E-01 -2.106668937399E+00 3.185654427905E-01 2.438683247172E-02 -1.322568810464E+00 -1.214252482880E+00 3.102070019632E+00 -1.320770336832E+01 -3.891548097686E+00 -6.086705312338E+00 1.895853490100E+00 1.986152468124E+00 1.252262969796E+00 2.832615755617E+00 9.393725951198E-02 1.119806129794E+00 -5.550727827199E-01 9.950737185921E-02 -5.020889051831E-01 -1.322593828922E+00 7.307969467528E-01 1.275705312906E-01 -5.960998616599E+00 3.697924457272E-01 5.857125528437E+00 9.014851392537E-01 -5.452025584557E-01 -7.285967028941E-01 -1.786582727637E-01 2.929574512045E-01 -1.355238757505E+00 -2.153806771460E+00 1.427341215555E+00 -9.254471274879E-01 4.298485791310E+01
 -1.710407684349E+00 -3.123178047359E+00 4.445872278250E-01 -9.756533488147E-01 1.768246535994E+00 -5.032850602037E+00 1.008152054786E+00 -9.531300030897E+00 -1.015010717038E+01 -2.639251449418E+00 -3.628653402849E-01 1.707428043782E+00 1.245988816462E+00 -7.562668520193E+00 3.745417442807E+00 4.916110761748E-01 -1.033765216294E+00 1.508450167659E+00 1.593382863450E+00 -6.981326128857E-01 -1.991755875147E-01 9.665605887838E-01 -2.331076018748E-02 -2.507005801034E+00 4.858131050173E+00 -1.003195580880E+01 -4.734446169524E+00 -2.260851235208E+00 1.268575314337E+00 2.080290898635E+00 -1.306274723064E-01 1.466080687312E+00 -1.126055151987E+00 -1.596179681889E+00 7.188483711799E-02 2.934766607021E+00 1.957899393341E+00 -1.271899317546E+01 5.671642063017E+00 -2.185220513803E+00 4.049432913034E+01
 1.522837067254E-01 -5.484495900599E-01 7.602114831626E-01 7.887649182108E-02 -1.108716368221E+00 -3.059268658750E+00 -1.201795170466E+00 -9.083176611659E+00 -7.336401749475E+00 2.988989045259E+00 2.660275785329E+00 -1.106153834170E+01 -6.665774892301E+00 5.221924683654E+00 -1.064159267896E+01 -3.048460061323E+00 -8.033561007757E-01 -1.103137312050E+00 -7.852949859501E-01 2.432292484465E-01 -7.195299258102E-01 1.519128506101E+00 2.107464517217E+00 -3.734376361885E-01 1.986870029414E+00 -6.411264420879E+00 -2.311934960040E+00 5.653846804837E+00 2.842263964687E+00 -1.075423409036E+01 1.765103619881E+00 -1.717589486700E-01 4.040704442519E-01 3.648400699841E-01 -1.183697240263E+00 -6.476132594637E-02 -2.092059507951E+00 5.285960919906E+00 -1.941894661208E+00 2.690010534183E-01 6.165267833244E+00 4.992440780366E+01
 1.395230005889E+00 1.409083957902E+00 -4.862953873121E-02 2.049154683374E+00 -1.575579059891E+00 -2.308594513045E+00 -1.021282903935E+01 -1.484560365261E+00 7.039202471302E+00 -1.008079933785E+00 1.060057573292E+00 7.534631720632E-01 -1.276820543965E+00 4.723560673880E+00 4.150087570071E+00 -1.831859183453E+00 -1.034177360634E+00 -1.634076554548E+00 4.390518927472E-01 2.497660818802E+00 -8.947385476199E-02 -2.378589401121E+00 -1.625424569125E+00 -6.958638816633E-01 1.455880669163E+00 2.274184140573E+00 1.509128150387E+00 2.121294222254E-01 -2.713989856503E+00 -1.202335487405E+00 -9.020575943991E+00 4.831601467888E+00 7.678635763053E+00 1.025877883972E+00 -9.715646233979E-01 -9.844996317261E-01 2.713318166113E-01 -9.387857528363E-01 -5.004651535512E-01 -8.712912194762E+00 -8.228904221384E+00 -1.581039601554E+00 3.702282335017E+01
 -1.027224074777E+00 5.628258039768E-01 -5.686659498358E-01 -3.434039944013E-01 -2.064045831559E+00 -4.119483925112E+00 4.106664804883E+00 -7.661917671806E-01 -2.015197666955E+00 -1.587530576946E-01 -4.466774524395E-01 1.070442559566E+00 -2.658761196667E+00 -1.341099120794E+01 7.114390072350E+00 -1.389824396326E+00 -3.001132398163E-01 8.281557276147E-01 -1.947149178024E+00 1.223511554260E-02 -1.839699244768E-01 1.497590798475E+00 -1.105237217774E-01 1.421506737446E+00 -3.940157543192E-01 1.193722043344E+00 -1.387591792972E+00 2.366895052716E-01 -4.582086860283E+00 -4.479775452776E+00 3.177089585068E+00 -2.856019713525E+00 -3.164698974241E+00 2.970293571549E-01 -3.453742126769E-03 -1.045581984900E-03 1.032732953654E+00 2.074993007475E+00 9.408742235476E-01 -3.696462154556E+00 -4.455054608231E+00 -1.022907736148E+00 -2.029372084484E+00 4.198440502688E+01
 1.070176547715E+00 8.236348395945E-01 4.161897066827E+00 -3.107731377394E+00 8.825233155203E-01 -1.401454261504E+01 9.890374963275E+00 -1.284160690069E+00 -6.318420037689E+00 1.877480658071E+00 1.027397053368E+00 2.168300782654E-02 -1.618833720563E+00 1.661260012764E+00 -9.564695058023E+00 -2.014908516961E-01 1.993734684626E-01 -1.064878864418E+00 1.863521566591E+00 -3.023352385480E-01 -2.126023050238E+00 -1.287966636311E+00 8.892062437906E-02 -5.557182021732E-03 6.719774498174E-01 -7.266423909473E-01 8.375385293857E-01 -4.554768860252E-01 -6.527138048267E+00 -1.130906383304E+01 5.513193010485E+00 -3.200511785627E+00 -2.509188489434E+00 -3.922725469100E-01 -1.288975741820E+00 1.677158327282E+00 -1.014700726662E-01 -1.404748530729E+00 -9.514367168325E-01 -2.436989802420E+00 7.312900143372E-01 1.330393117646E+00 -9.916732135256E+00 6.399956557852E+00 5.044905138105E+01
 -1.675613316824E+00 -9.225086081023E-01 1.288276571529E+00 -3.303919524149E+00 7.328942842645E-01 3.296155340279E+00 -9.480325683533E-01 2.883586449426E+00 2.421568735549E-01 1.536442164390E+00 1.268118172062E+00 2.289813090556E+00 -1.219995947987E+01 6.228568622541E+00 -3.075715960127E+00 -2.665649906653E+00 -9.749756780358E-01 -1.062972152520E+00 2.455384869461E-01 2.934416351685E+00 2.470879877638E+00 -3.929332725436E-01 2.982657732789E-02 2.316197514635E+00 -3.324077679591E+00 6.821608458505E-01 7.086045244087E-01 -9.338008905580E-01 6.928230846018E-01 7.559616698624E-01 6.666840837910E-01 -6.340965301161E-01 -4.240179192085E-02 -2.301318301477E+00 -5.279327326663E+00 -4.466137002493E-01 8.116617358556E-01 1.753560632940E+00 8.220345360732E-01 5.297396032772E-01 -4.055806619919E+00 -1.243887592922E+00 -6.465079286316E+00 3.254873172260E+00 -2.372774192596E+00 4.442968993899E+01
 -4.017258759231E+00 -7.615247201752E-01 2.322327958890E+00 6.897725377711E+00 -6.376276386759E+00 -4.627749974461E+00 -9.141270317964E-01 8.525381341923E-01 4.010777594159E-01 -5.279518200701E-01 1.925093555438E-01 1.235942797369E+00 -6.990478965528E+00 -1.540791077674E-01 -2.600412697798E+00 2.158802546976E+00 7.019687609467E-01 -2.000050187029E+00 1.613888013207E+00 -6.760970578490E+00 -6.228688410771E+00 -2.250452867756E+00 4.772408196373E-02 -7.256147456099E-01 -6.529106123210E-01 -1.596818676424E+00 1.565694062458E+00 -2.452741345934E-01 1.761634092561E+00 1.387169016520E+00 6.998880930132E-02 -4.239332821838E-01 2.015597314569E+00 -4.619022035678E+00 -9.392982052641E+00 3.212478915890E+00 -1.600005726336E-01 -1.777451571989E-01 -2.407242755147E+00 1.506301596271E+00 -1.840106965049E+00 4.926173201070E-01 3.769626177475E+00 -1.836209437221E+00 2.998915051726E+00 5.435282411370E+00 3.417409050921E+01
 5.784547616894E+00 2.481197559998E+00 -1.280579360171E+01 5.836047249111E+00 -3.938959212404E+00 -4.037104500512E+00 -3.046764751809E-01 1.199668417326E+00 8.185173822971E-01 2.101730887121E+00 1.844516872968E-01 7.049106380330E-01 1.857829620585E+00 4.719355718143E+00 -7.875600932664E+00 -1.847925698571E+00 -1.801820058468E+00 8.537314197616E-01 -5.887203304186E-01 -4.137607571742E+00 -3.704523147359E+00 -8.022710353270E-01 -1.270867025347E+00 -7.128113726807E-01 -1.905596814837E-01 8.258561546071E-02 1.100848733966E+00 6.302825204726E-01 2.021150810080E-01 2.068483216542E+00 -3.345137458481E+00 -2.458815833087E-01 -1.003166884383E+01 2.507962715718E+00 4.307441495915E+00 6.164215648036E-02 7.684710805777E-01 2.873144889393E+00 -1.658591054266E+00 -2.449302830353E+00 -2.689697771871E+00 -1.311957309301E+00 -2.787733174431E+00 1.357914607276E+00 -4.806847585095E+00 4.105739409923E-01 5.067791772272E+00 4.947489066328E+01
 -6.519198055067E+00 4.028350583344E+00 -5.949740435993E-01 -3.935487213440E+00 -4.708677115928E+00 8.382052822906E+00 -1.067656042089E+00 1.646823822897E+00 2.352933437534E+00 -1.101983388893E-01 -2.127876245611E+00 1.247865834600E+00 7.173314093521E+00 6.134250860316E+00 -9.342160053330E+00 1.497584577108E+01 7.409607244538E+00 -7.778683737996E+00 -3.270019631657E+00 7.443489572371E-01 -4.399828978784E+00 -6.534634512676E+00 -6.027652364424E+00 9.642897736810E+00 -1.990708644235E+01 -1.343985262725E+00 5.838811335814E+00 -2.593527734503E+00 4.923278830113E+00 6.338533521019E+00 -1.399017280854E+00 -8.357840993460E+00 -3.617222620290E+00 2.023417776662E+00 1.066290331903E+00 -2.185903910144E+00 3.976283411242E+00 5.741402373627E+00 2.077691532123E+00 1.696441491239E+00 -4.195501871127E+00 -9.937477501554E-01 -6.328920774749E-01 -1.326774692905E+00 -9.039559449645E-01 6.538907169992E+00 2.613105921976E+00 3.481962109022E-01 5.369675626592E+01
 -2.637923111345E+00 4.580304586174E+00 -1.350572909978E+00 -6.422640698736E+00 -8.877938158538E+00 1.232579285386E+01 -2.527731440348E+00 1.104680628667E+00 7.547642307807E+00 4.162649320765E+00 1.695745175637E+00 7.657322245738E+00 1.018794338103E+01 2.640638839270E+01 -2.025074383759E+01 1.212164053944E+01 1.358511263141E+01 -1.437215212191E+01 2.318951227829E+00 3.394744700504E-01 1.525727727060E+00 -9.877048585244E+00 -1.080323780988E+01 1.957479977023E+01 -4.592875224043E+00 1.255763030175E+00 4.289277756889E+00 1.411171097950E+01 -1.192953895407E+01 1.257626488918E+00 -3.931740509928E+00 -1.603725300173E+01 -1.085200694640E+01 2.859896872031E+00 3.708720746024E+00 -2.398404557273E+00 3.385477302199E+00 7.545435328438E+00 -2.881122813426E+00 -2.201163636262E-01 -6.440929755948E+00 -1.471301069587E+00 1.819861098803E+00 -1.221727125566E+00 -1.946052643903E+00 5.430036824198E+00 3.487086085233E+00 3.131104537473E+00 2.895456286216E+01 8.744086938357E+01
 3.296924409261E+00 -4.658906737026E-01 1.122704702303E+00 3.882630302328E-01 9.354263503925E-01 -1.206708059026E+00 -1.211025985543E-01 2.135993407727E-01 -4.224032703573E-01 -1.547339280436E+00 -5.789387536973E-01 -1.330196695796E+00 2.858396835329E+00 -1.566217602382E+00 3.251061470375E+00 -5.078500655337E+00 -4.302773843373E+00 1.345591162603E+00 -5.094154728254E+00 6.929961114353E-01 -7.658704631410E+00 3.449483393877E+00 6.360946483466E+00 -9.269980030757E+00 4.292673692862E+00 1.059560310105E+00 -1.908914367875E+00 1.106008876400E+00 -1.606682034008E+00 -9.630880962941E-01 -1.443779817794E+00 -3.087378479895E+00 -4.097751341426E+00 -4.038594292034E-01 -2.412154917785E+00 2.771016938690E-01 -9.154187563425E-01 -1.024162108248E+00 1.503335882376E+00 -2.061230916505E+00 1.177243651947E+00 -9.537179804261E-02 -5.377838538557E-01 1.794855842521E+00 3.347089222143E-01 8.952734138042E-01 -7.703112331021E-01 7.563095379786E-01 -1.017012067448E+01 -8.205533448226E+00 3.681112151113E+01
 -2.397828460690E+00 -8.915929233651E+00 1.569472214300E+00 7.163671407966E-01 7.703764031337E+00 -1.720205022334E+01 5.905762906266E+00 -5.408774438466E+00 -7.984753316099E+00 -2.444088026247E+00 1.684074802809E+00 -7.782064645350E+00 -3.289077920381E+01 -4.516622497637E+01 3.735302974084E+01 -2.689531767662E-01 1.371043460319E+00 1.183276604546E+01 -2.345560357736E+01 2.529638264817E+00 1.054206887454E+00 5.301109471752E+00 1.004515236441E+01 -1.185141498857E+01 -4.337542110602E+00 -9.202359556571E+00 -1.395478001939E+01 -1.209844942847E+01 7.000719409153E+00 -1.015136327558E+01 -1.475556881453E+01 4.984980703435E+00 7.435427729295E+00 -5.566145237357E+00 -5.444617912574E-01 2.032713833834E+00 -1.868471998028E+01 -1.275268005847E+01 2.788706135451E+00 -1.637661181360E+01 1.491597661578E+01 3.800039657662E+00 -2.661088289329E+00 1.197876378323E+00 2.565174215415E+00 -2.131864744615E+01 -5.214284991990E+00 -8.199646628288E+00 -4.257370335659E+01 -5.427669481971E+01 1.083692377071E+01 1.846554983365E+02
 -7.960376264280E+00 -1.863513023054E+00 2.062884578427E+00 -9.228751876296E-01 5.781428625661E+00 -1.109756161723E+01 1.090847858033E-02 -1.324918352448E+00 -1.001864633779E+01 -9.894408540060E+00 -1.774802233989E+00 -1.846362779903E+01 -1.721606136213E+01 -1.116130580562E+02 3.607750781603E+01 1.559906477820E+01 1.369696396924E+01 1.531310024342E+01 7.470947252491E+00 -7.467839331146E+00 2.477687398869E+00 9.491310333453E+00 -1.724443327707E+01 -2.591939137960E+01 -4.355877923511E+00 -1.691699467276E+01 -7.092067238514E+00 -6.312452428639E+00 -3.981224003343E+00 7.244524840267E+00 -1.488757741221E+01 -2.001598907424E+00 1.277220862219E+01 4.003732987920E-01 -1.155948830897E+01 1.324132144892E+01 -1.439023839435E+01 -1.997071262965E+01 8.271850657195E+00 4.665172278140E+00 1.119478373956E+01 -3.346635291124E+00 -5.059066417317E-01 -1.377863461574E+01 5.651393576716E-01 -1.677752765453E+01 -1.198890231943E+01 -1.131135872843E+01 -3.467036142888E+01 -9.294581149880E+01 1.128957599510E+01 8.732520492669E+01 2.810484633516E+02
 4.229336771026E+00 -2.804431453907E+00 -1.507499901785E-01 4.409865277283E+00 2.808874754924E+00 -1.129560443243E+00 -6.287361371999E-01 -2.327652408165E-01 1.594955032853E+00 -1.551366350984E+00 1.572905919926E+00 1.694316713714E+00 9.347974944117E+00 3.808688621340E+00 -3.587241595710E+01 -7.527100668625E+00 -2.004344799301E+00 9.571929799197E-01 -4.934221646704E+00 -2.545074676427E+00 -5.293681184894E+00 3.285973366005E+00 -2.722830775828E-01 -1.861482940850E+00 -2.339524231699E+00 -2.455278139864E+00 -1.141745719590E+01 -3.826628667396E+00 3.429055460764E+00 -1.718878108074E+01 5.360031319888E+00 8.190917024901E+00 -4.787123452446E+00 -4.987063674363E+00 5.525811051409E+00 -1.076995229217E+01 3.740123575197E+00 3.288464029777E+00 -6.999412912260E+00 1.668891918279E+00 1.160651855237E+00 -8.853944581014E-01 8.689778122268E-01 -3.071013712559E+00 -6.367011178422E+00 -6.945558516336E+00 -1.829854672318E+00 -9.987058666175E+00 1.285643185441E+00 5.339262309728E+00 -1.884525388853E+01 -2.730376645511E+00 -1.838767140913E+01 1.268387341786E+02