#BIOSYM hessian 1
@Type: Hessian Update
@Units
 distance: 	A
 energy: 	Kcal/Mol
#header
@natom 6

#label
L1      L2      L3      L4      L5      L6

#element
Li Li Li Li Li Li

#matrix
18
 2.205170075572E+03
 1.579929623344E+02 1.544479572548E+03
 -1.525364388406E+02 6.706493172575E+02 1.596103024924E+03
 4.182953841381E+01 -1.870526386988E+02 1.818523804035E+02 2.193176259345E+03
 -1.393426644463E+01 5.939353436251E+01 -5.589345903561E+01 1.792391792032E+01 2.237287173798E+03
 -7.005476735746E+00 3.186564211146E+01 -3.155000360100E+01 7.381408849752E+00 -3.643771961850E+00 2.240013831959E+03
 -3.887289233767E+01 1.735983116669E+02 -1.687733573931E+02 4.431621049454E+01 -1.659293871037E+01 -6.831384555321E+00 2.199682815037E+03
 -7.437038446056E+01 3.255100840947E+02 -3.120242169771E+02 8.964228451514E+01 -2.607472351870E+01 -1.591692297755E+01 -8.313786489546E+01 2.090580190924E+03
 4.250580028485E+01 -1.859256168891E+02 1.779817010682E+02 -5.148224373240E+01 1.466226135450E+01 9.285868320336E+00 4.777964944745E+01 8.558075959658E+01 2.192186335622E+03
 2.702078836910E+01 -1.199781850627E+02 1.160899288538E+02 -3.139458522746E+01 1.086703527938E+01 5.106957335064E+00 2.915912929379E+01 5.679505336928E+01 -3.253156175054E+01 2.220442368842E+03
 4.503409078102E+01 -1.985403358065E+02 1.913148767973E+02 -5.322821184267E+01 1.702496058008E+01 9.041799113701E+00 4.940588702786E+01 9.289908894348E+01 -5.307440260524E+01 -3.416649390186E+01 2.184218337788E+03
 1.391031969588E+01 -6.080013785015E+01 5.822919899426E+01 -1.680603879496E+01 4.818397437414E+00 2.973794210344E+00 1.556669331351E+01 2.801250726843E+01 -1.596516877582E+01 -1.063425320226E+01 -1.733298634178E+01 2.235614961694E+03
 -2.451548816645E+01 1.089072941293E+02 -1.054354724777E+02 2.842039885618E+01 -9.925211955547E+00 -4.586863082854E+00 -2.639054616968E+01 -5.162155718952E+01 2.958632888344E+01 1.849674266272E+01 3.100750436574E+01 9.666333852492E+00 2.224082059933E+03
 -8.795585456139E+01 3.899222496804E+02 -3.772504839082E+02 1.022760140894E+02 -3.516914447677E+01 -1.658907007491E+01 -9.491235493778E+01 -1.843897252627E+02 1.056832711768E+02 6.638459628625E+01 1.110640952798E+02 3.447157157570E+01 -6.016726606598E+01 2.025047367584E+03
 5.018625227376E+01 -2.220095628644E+02 2.147382057658E+02 -5.846909494220E+01 1.987572217856E+01 9.503379728163E+00 5.422331330704E+01 1.047982223756E+02 -6.008264972524E+01 -3.786305514241E+01 -6.328172863230E+01 -1.954110321040E+01 3.431149862107E+01 1.230043090638E+02 2.170741009917E+03
 3.021409886986E+01 -1.334677443688E+02 1.288029594535E+02 -3.550170116246E+01 1.166146391018E+01 5.935358189661E+00 3.295140440384E+01 6.269246866029E+01 -3.585797313212E+01 -2.287832321910E+01 -3.805277643021E+01 -1.170305486442E+01 2.075295360545E+01 7.437486519043E+01 -4.238891411796E+01 2.215307688223E+03
 -2.676654764879E+01 1.200810158416E+02 -1.167960341338E+02 3.043863401666E+01 -1.161568002424E+01 -4.757676210854E+00 -2.836104015114E+01 -5.767879445956E+01 3.307372736649E+01 2.009799402965E+01 3.417997393598E+01 1.083064791037E+01 -1.820076328398E+01 -6.562872208348E+01 3.761303787864E+01 2.279172303812E+01 2.221508327511E+03
 5.293954332220E+01 -2.337796417650E+02 2.253439935685E+02 -6.247641178536E+01 2.018085002568E+01 1.061925010507E+01 5.803508588217E+01 1.095496507124E+02 -6.255996578773E+01 -4.016801609408E+01 -6.666755833189E+01 -2.046556219092E+01 3.645817420407E+01 1.306804021687E+02 -7.451272175637E+01 -4.478837552907E+01 4.003629719017E+01 2.162421126782E+03

