#BIOSYM hessian 1
#COMMENT: Materials Studio generated
@Type: Hessian
@Units
 distance: 	A
 energy: 	Kcal/Mol
#header
@natom 19

#label
Li1     Li2     Li3     Li4     Li5     Li6     Li7     Li8     Li9     Li10    Li11    Li12    Li13    Li14    Li15    Li16    Li17    Li18    Li19    

#element
Li Li Li Li Li Li Li Li Li Li Li Li Li Li Li Li Li Li Li 

#matrix
57        
 6.527503731260e+004
 9.889440772925e+001 6.451487863655e+004
 -4.070560015618e+001 1.413572255794e+002 6.310685729362e+004
 -6.272334717429e+001 1.261531156115e+002 9.407911027803e+001 3.016987571738e+004
 -1.240746702509e+002 -6.483707195557e+001 1.172272152312e+002 9.026748772661e+001 2.976939067720e+004
 1.577237046793e+002 9.113186238091e+001 -1.421691043335e+004 -1.487129060723e+002 -1.121938425673e+002 4.442535216495e+004
 -2.299946815540e+003 5.241351319064e+003 -2.818846485992e+003 -2.096149122086e+003 3.863125830365e+003 8.884365305416e+002 3.421635056651e+004
 4.307200918012e+003 -9.982657043575e+003 5.653375656088e+003 3.947402329042e+003 -7.800882832984e+003 -2.533835954991e+003 -6.130684553966e+003 4.199409328509e+004
 -1.559949336451e+003 4.444474463740e+003 -2.441095703104e+003 2.656490952099e+003 -5.139888835476e+003 -4.361027779493e+003 3.174520532960e+003 -7.334989444128e+003 3.106030498792e+004
 -6.338830325869e+003 -5.623150177558e+003 4.500213148920e+003 -5.004036974375e+003 -4.885247799481e+003 -2.367060988038e+003 -1.176145768661e+004 7.007126693984e+002 1.149097121029e+003 3.727792209090e+004
 -6.693019028145e+003 -5.970283119295e+003 4.493039114541e+003 -4.871372397724e+003 -4.922685713497e+003 -1.739000346934e+003 3.529977648775e+003 -2.780879613166e+003 1.097510112202e+003 7.162156592993e+003 3.877629266878e+004
 3.981606633340e+003 3.069882956561e+003 -2.546219358215e+003 -4.040032657461e+003 -4.118679674278e+003 -4.418413125068e+003 -4.468215566874e+002 1.092869864690e+003 -5.528296943615e+002 -5.996138762961e+003 -5.228073428455e+003 3.148093344983e+004
 -9.621228046381e+003 5.487185361072e+003 5.834169216104e+003 -7.816669239248e+003 4.003397342184e+003 -2.236465024216e+003 -5.977266144718e+002 -6.895377435490e+002 1.201263766974e+003 -2.203073788398e+003 -3.074375856394e+002 1.545816492667e+003 4.273382532918e+004
 4.646294161459e+003 -2.669918053221e+003 -2.929131593140e+003 4.152550135873e+003 -2.247755348138e+003 1.643633902412e+003 1.080387765846e+003 -1.029194059055e+003 -4.275682155713e+002 2.560879555719e+003 -1.200193893780e+004 -8.748170298344e+002 -5.444820945575e+003 3.299300998459e+004
 4.342893430582e+003 -2.796957552565e+003 -2.667871206678e+003 -5.032293302306e+003 2.574477618099e+003 -4.392781917393e+003 -7.138752742857e+002 1.138621750784e+003 -4.859786859938e+002 8.881127550358e+002 7.575879676083e+002 -6.302235272512e+002 -6.902222333040e+003 4.061305340335e+003 3.147902441771e+004
 -4.691901656345e+002 -2.054691829442e+003 -1.160540875605e+003 -4.701142091568e+002 -1.969718845213e+003 7.997159077186e+002 -5.111744586037e+002 7.877341533126e+002 -4.670123592005e+001 -7.941137919362e+002 -1.056234012994e+003 5.423102021378e+001 -1.051733659230e+004 -5.245393615451e+003 -3.620660227241e+002 3.097960726878e+004
 -2.542015698687e+003 -1.173753065256e+004 -6.440970744150e+003 -1.706581458809e+003 -9.685183350524e+003 2.547843820995e+003 -1.071687538461e+003 -1.022721365415e+003 -1.222896375046e+003 3.709901718977e+002 -7.844977076740e+002 -1.346023365117e+003 -2.145201023186e+003 -3.816544078709e+003 -1.730994178608e+003 1.910983032189e+003 4.481653201715e+004
 -1.313739121741e+003 -4.898086264353e+003 -2.688801506711e+003 1.016280720094e+003 5.521757186000e+003 -4.178123488285e+003 -7.595804504181e+002 1.017040344431e+003 -4.297725458439e+002 7.547960923375e+002 9.201566317957e+002 -4.713812041263e+002 1.022929424272e+003 -5.999453757398e+002 -6.077243813798e+002 2.057621735102e+003 7.986985151230e+003 3.151878045544e+004
 -1.177228258971e+004 -1.112758068772e+003 -6.385434264150e+003 -9.847145668681e+003 -1.451701757246e+003 2.712954086898e+003 -4.659774453619e+003 -2.752532511675e+003 -1.261939682317e+003 -1.254892205549e+003 7.366191583939e+002 -1.260911193176e+003 -9.492676966488e+002 -5.353351408327e+002 -1.269539989564e+003 -6.536635522592e+003 3.522977147828e+003 -1.606550707314e+003 4.428683189586e+004
 -1.714985432001e+003 -1.824708008835e+002 -8.661493416425e+002 -1.259772176832e+003 -2.791709358588e+002 9.075085564306e+001 -5.644868251454e+003 -9.760409887320e+003 -4.414433366371e+002 -1.079180983399e+003 -5.843684929185e+002 -3.856503265223e+002 1.027802123658e+003 -5.841673645478e+002 -3.974555097062e+002 6.403717324608e+003 -7.897833433696e+003 -8.174469694567e+001 2.397665965633e+003 3.111500569457e+004
 -5.198433307755e+003 -2.379403244136e+002 -2.755377442736e+003 5.543092558519e+003 7.945463253330e+002 -4.301785410931e+003 -1.065988787868e+003 1.412995685236e+003 -6.659817528594e+002 8.762261498358e+002 1.125087885900e+003 -5.953835072304e+002 1.368883933587e+003 -5.294495489454e+002 -6.155670662473e+002 -3.789975739360e+002 -1.312479755988e+003 -6.520914933777e+002 8.341041154916e+003 6.917949144864e+002 3.181698896608e+004
 -1.151137836216e+003 -3.569428539215e+003 -1.218308392148e+003 -1.990867122331e+002 -5.208048898750e+002 8.806380724055e+002 -4.653535181054e+003 -2.654813735314e+003 -5.034868694128e+003 -2.839314690659e+003 1.580578336545e+002 5.024211260215e+003 -1.849905463761e+003 2.032567080779e+003 1.100089030110e+003 1.315904536607e+002 1.450373515027e+003 4.538475600349e+002 -2.745116070059e+002 -1.115584459609e+003 -3.922376165083e+002 3.779956358441e+004
 -3.268583193483e+003 -1.038908365488e+004 -3.363900404000e+003 -5.166893031135e+002 -1.398933550897e+003 2.470933388646e+003 2.166677689567e+003 -4.391238581918e+003 1.586473506487e+003 -1.473835995010e+003 -4.881716659252e+003 -1.413416183886e+003 -3.609434248510e+003 -9.178407178019e+002 5.910698551755e+002 1.309973729299e+001 3.380407742529e+003 1.307133836268e+003 3.160876177094e+003 -5.553608706293e+002 1.195367410279e+003 4.275424530435e+003 4.907420896179e+004
 -1.213739549865e+003 -4.317762512822e+003 -1.891766049635e+003 -7.632085620678e+002 -2.080620097976e+003 -2.190479765250e+003 -5.796045297564e+003 -9.646686787359e+002 -6.434302944261e+003 4.234031598774e+003 -3.585941653701e+003 -8.665549562381e+003 3.643900875819e+002 -1.488484634656e+003 -7.256148695088e+002 -2.653101146432e+002 -4.570929641258e+002 -1.256502732898e+002 -1.031193350664e+003 -9.959680455584e+002 -5.415618635554e+002 -1.038670600390e+003 5.088432689636e+002 4.166617916212e+004
 -1.189124257713e+004 -1.675861869281e+002 -3.553878316498e+003 -1.699450244987e+003 4.906009392407e+001 2.623738996700e+003 1.630964247433e+002 -3.203125438578e+003 7.822648113568e+002 -4.678348833817e+003 -1.953647882376e+003 -1.237827005060e+002 -5.267161605371e+003 8.472128391105e+002 1.847560939917e+002 -1.299611526563e+003 3.674017074195e+003 8.022303639902e+002 3.292547410438e+003 9.891562532705e+002 1.637288761863e+003 -6.644164043321e+003 -7.349148743778e+002 1.448508996085e+002 5.065953078065e+004
 1.375374722466e+002 9.100590523767e+000 7.894387422786e+001 8.558973440611e+001 1.034267147839e+001 -1.203615699436e+001 1.245063317048e+003 -9.055499596275e+002 6.575464071166e+002 2.726326121119e+003 -4.537161810372e+003 5.209802641949e+003 -9.300175991590e+002 -2.633925758186e+003 -5.212808538452e+003 -1.835751571079e+003 -1.213978283501e+003 -8.475163068794e+002 -3.034496258769e+002 -5.012594348969e+001 -1.370624110633e+001 6.137852682458e+003 -8.603301091546e+003 -2.675544632099e+002 -5.266147325736e+001 3.630353431873e+004
 -4.319926577703e+003 -2.020313385933e+002 -1.818696501114e+003 -2.236101752888e+003 8.078698222403e+001 -2.324512706909e+003 -1.217094692479e+003 7.472315704062e+002 -5.894716038726e+002 -2.777829046252e+003 5.253389863450e+003 -6.387357428689e+003 -1.959210163330e+003 -5.195353368564e+003 -8.700543405948e+003 -1.263144228986e+003 -9.482345918738e+002 -7.540117727416e+002 -7.442130772239e+002 4.916027748063e+001 -2.178932548114e+002 1.561915735354e+002 -4.649192810314e+002 -8.975139915136e+001 -2.298965396429e+001 1.279340164170e+003 4.184820233746e+004
 -1.172805933264e+003 3.255544102798e+003 -1.008706243569e+003 -1.368912687302e+002 3.969854718889e+002 7.522523042448e+002 5.069489012236e+002 -6.586097675955e+002 3.372806018309e+002 -1.334379209061e+003 -1.623618870021e+003 8.309187748540e+002 -4.295763886112e+003 -2.596111127461e+003 4.781342552335e+003 -3.176830478500e+003 1.799500632863e+003 -5.043416600146e+003 -7.307596194453e+002 2.011468726467e+003 -5.222221321818e+002 -6.500946206622e+002 -2.206679485735e+003 -7.964596557695e+001 -6.672857026732e+003 -6.179761947314e+003 -1.315422858869e+002 3.754307325884e+004
 3.860050196738e+003 -1.078894864233e+004 3.137849743204e+003 5.277874204157e+002 -1.625706604818e+003 -2.528335347499e+003 -2.146581484837e+003 2.886131327018e+003 -1.323600777271e+003 2.456582794020e+003 6.247167106896e+002 -5.808612962453e+002 2.115816133936e+003 -4.876310385427e+003 1.648065476222e+003 -6.528578708740e+001 -4.887479603417e+003 -1.640427780480e+003 -3.370910042275e+003 -1.935149134798e+003 -1.361108526391e+003 2.232288533022e+003 2.861293953457e+003 1.375389916706e+002 7.654390030491e+002 -8.467778630968e+003 -4.107816903967e+002 -4.180752539801e+003 4.937905132347e+004
 -1.426075980057e+003 3.884571439205e+003 -1.742807598893e+003 -6.218766572505e+002 2.196311277351e+003 -2.407738000620e+003 -2.076964051626e+002 7.393705763233e+002 -2.475768078967e+002 3.557330216119e+002 1.533268336087e+003 -6.465319687171e+002 4.204516897681e+003 4.231336802532e+003 -6.423025035036e+003 -5.698246421629e+003 2.503826553963e+002 -8.473585075251e+003 -1.447747085591e+003 9.527318903692e+002 -8.762779421613e+002 6.134142924345e+001 1.259066876290e+002 2.902255053235e+001 -1.601011469299e+002 -2.782270848501e+002 -1.043056338304e+002 1.099443629707e+003 5.118095906244e+002 4.146408147900e+004
 -7.810775796973e+003 -5.954507253501e+003 2.697876825665e+003 -1.139482223629e+003 -8.536825701391e+002 -2.171116887463e+003 -2.265776943127e+003 3.035126885809e+003 -1.194559953176e+003 1.682672392339e+003 2.634254828830e+003 -1.256549873597e+003 6.400122994006e+002 -1.854847601493e+003 -4.564057883526e+002 -4.841441620590e+003 -2.310029722864e+003 3.002828704270e+003 -4.238753189521e+003 -2.879460957235e+002 -3.375172192052e+003 5.822024823248e+002 3.935235176928e+003 1.223927458296e+002 2.732119511074e+003 -9.807349225048e+002 1.343090480028e+001 -9.673309121944e+003 -1.731700479665e+003 -3.471784644904e+002 4.601955495215e+004
 -5.100640869598e+003 -3.916886235037e+003 1.893514067188e+003 -6.495682551415e+002 -4.817705960358e+002 -1.220782572434e+003 -2.566274357001e+003 -5.021345604578e+002 3.370778110959e+002 8.294166492542e+002 1.201034954983e+003 -7.291786980658e+002 2.166583574448e+003 -1.332402904362e+003 -8.800433175719e+002 2.223118827962e+003 -4.016382362451e+003 -4.037048133300e+003 -1.751154144129e+003 -3.533388124526e+003 4.350555717614e+003 -6.969371888703e+002 1.552953361590e+003 8.160994311034e+001 2.870755103145e+003 -2.954794484105e+002 -1.319216267396e+001 5.204035242679e+003 -5.417724029688e+003 -2.035624554620e+002 6.350407611224e+003 4.127021119942e+004
 3.389010132275e+003 2.580462763407e+003 -1.787911272177e+003 1.894599448082e+003 1.178856888665e+003 -2.316427553719e+003 4.874269295944e+002 1.498563564416e+003 -7.765347081304e+002 5.912677306472e+002 3.588889647194e+002 -2.394984261695e+002 1.470127171584e+003 6.270559631185e+001 -6.208055240633e+002 5.282022063982e+003 -2.795900312428e+003 -6.568536727083e+003 -1.278286865115e+003 5.445394678986e+003 -8.609577645539e+003 -4.497967076270e+001 -2.278367789658e+000 2.615170291088e+001 5.391373530402e+001 -1.866559104603e+001 5.614313243481e+001 -8.400965329234e+001 1.505002936335e+002 -5.394504234151e+001 6.976667389065e+002 -9.115247253583e+002 4.201500284524e+004
 -7.767944139594e+003 5.211976305654e+003 2.762952438358e+003 -1.042866649561e+003 7.264686420465e+002 -1.985714114573e+003 -4.351008734313e+003 1.821347637701e+003 2.980083754575e+003 -7.046998873295e+002 2.980827894723e+003 -1.612087143737e+002 2.469394208126e+003 -7.732143022065e+002 -1.227522444879e+003 -1.171891802979e+003 -2.898298397621e+003 -1.041103555348e+003 -4.218888988840e+003 -1.854356349872e+003 -3.198798121982e+003 -9.809382428217e+003 1.754407588120e+003 3.398622363550e+002 2.649327123271e+003 1.074265912757e+003 6.627809912421e+000 5.565643026807e+002 -3.875023482564e+003 -9.289061031376e+001 -4.696969735106e+003 -3.330847144686e+003 -1.695409707495e+002 4.587165429589e+004
 5.535429706592e+003 -3.779969529011e+003 -2.043407120687e+003 7.440687848245e+002 -5.629756550006e+002 1.470439645224e+003 1.421070417547e+001 -3.802143399020e+003 4.536558108192e+003 -2.318994672497e+003 -1.957603111751e+003 1.257146081629e+003 -2.235501445109e+003 7.555319897664e+002 8.159312369168e+002 1.610043448278e+003 2.258233762283e+002 -1.895729143910e+002 2.266236572017e+003 -4.565487872595e+003 -4.240175101894e+003 -5.062610227663e+003 -5.360552826678e+003 -2.223810740379e+002 -3.023556767776e+003 -3.403071386717e+002 1.671677714143e+001 6.283387911701e+002 1.718182561224e+003 5.110737843688e+001 3.280606036591e+003 -1.108394742387e+004 5.298105411753e+001 -6.408519500356e+003 4.152274254321e+004
 3.698132856370e+003 -2.358504083439e+003 -1.854843174037e+003 1.780834018843e+003 -1.285268738178e+003 -2.332299397924e+003 4.657429265691e+003 3.383264357500e+003 -8.371740008350e+003 1.672534043896e+003 4.445484153034e+001 -7.852911711281e+002 5.315985426975e+002 -4.334881702285e+002 -2.285552008305e+002 5.710843196021e+002 -1.351646140638e+003 -6.669894489185e+002 -7.622165293002e+002 -5.824419422234e+003 -6.917555788631e+003 7.588397247132e+001 1.570856167743e+002 -5.164663153250e+001 -3.109368425715e+001 1.039908529236e+001 6.721146815307e+001 3.573336003225e+001 -4.389008536858e+001 3.515704650013e+001 1.581984927962e+002 6.234625393388e+001 -8.371442104625e+001 -7.413546007082e+002 -9.237156484561e+002 4.199136959588e+004
 1.650588350339e+002 -2.340797825845e+002 1.789644563222e+001 1.280212266239e+001 -1.427648480219e+001 8.844209020721e+001 -3.805002284766e+002 6.749960494717e+002 -9.057761446061e+002 -1.098387109506e+003 -1.248954064624e+003 1.650414422089e+003 -1.683601961598e+003 7.739026336869e+002 2.074775241147e+003 -1.911909314495e+001 -4.310369287984e+002 -4.077465050800e+002 -1.909501626456e+003 -3.789907361853e+002 -2.172098850917e+003 -1.269650116008e+003 -3.940220237137e+003 1.471563656923e+003 -1.183964494266e+004 -1.810270914432e+002 4.316632733692e+003 -1.044305553089e+003 3.131359599430e+003 1.157409106502e+003 -8.002364525222e+003 -5.471350995955e+003 -3.750681631480e+003 -7.625661410428e+003 5.215903141067e+003 -3.333506758905e+003 6.529999768762e+004
 2.364880419167e+002 1.149507719175e+002 1.160808104050e+002 1.729289717978e+001 -3.247013677208e+000 -1.730171948472e+001 9.999536841315e+002 -1.732881795782e+003 2.016448253443e+003 -9.316073329252e+002 -1.008301577826e+003 1.572471868054e+003 1.002822943911e+003 -3.912614745471e+002 -1.054119785596e+003 -2.606827231886e+002 -2.029324460191e+003 -2.216819577935e+003 -1.554152163557e+002 -1.032281171213e+001 -2.520505349191e+002 -3.338759280999e+003 -1.060718055074e+004 3.843669597503e+003 3.671754515554e+002 2.268117726332e+001 -2.010738098420e+002 3.502624038779e+003 -1.058682537925e+004 -4.302774661342e+003 -5.248731561340e+003 -3.649344349647e+003 -2.295372713219e+003 5.898589524107e+003 -4.055506423829e+003 2.640208771912e+003 6.292874542818e+001 6.451807871700e+004
 -3.491632168762e+000 1.377912670803e+002 -1.368002760159e+004 -6.185812258320e-001 2.161647832333e+001 -1.398336826076e+003 -5.930850533295e+002 8.910061027879e+002 -2.246003789289e+003 6.164731265659e+002 9.045900418676e+002 -2.313225509089e+003 9.839246324737e+002 -3.754056510176e+002 -2.347141261520e+003 -1.238973687725e+002 -1.092012554228e+003 -2.371940941953e+003 -1.127281617890e+003 -2.060870919068e+002 -2.347342680100e+003 1.050365282914e+003 3.107393191824e+003 -1.734668389074e+003 3.564534782763e+003 2.062182523155e+001 -1.848106056344e+003 1.181496295130e+003 -3.384698439437e+003 -1.884938205976e+003 -2.802804695631e+003 -2.034102658861e+003 -1.853896707806e+003 -2.655544181169e+003 1.934591452692e+003 -1.772684498616e+003 6.922413231627e+000 1.029970260108e+002 6.309715616516e+004
 1.444243993222e+001 -1.662218160266e+001 4.292637723471e+000 -6.814471488808e+001 1.684060109370e+002 6.060538124745e+001 -7.980470425876e+001 9.035305890405e+001 -3.548793283213e+002 -1.793600099466e+002 3.037459917509e+001 6.480381975069e+001 -1.550801738820e+002 1.880022526996e+002 4.465935223970e+002 -9.326061580380e+001 1.133388286740e+002 1.622075343344e+002 -1.054291572730e+002 1.010521179660e+002 -2.310470297929e+002 -1.530160197896e+002 -5.570330868172e+002 6.428550979535e+002 -1.691732109189e+003 -1.010341593431e+002 2.230899263512e+003 -1.832055923040e+002 5.073418617312e+002 7.441850157245e+002 -1.070911091219e+003 -7.350435767894e+002 -1.807256028577e+003 -1.104823015814e+003 6.735973788948e+002 -1.863280903962e+003 -5.721806676425e+001 -1.259101717577e+002 -1.099805818117e+002 3.015451052477e+004
 1.830766673848e+001 -2.715461096211e+000 -1.024625187448e+000 -1.712458983835e+002 -9.145003727649e+001 -2.238335232015e+000 -7.042281406935e+001 -1.930572940821e+002 2.411828317508e+002 -1.665802649678e+002 -7.408396036981e+001 4.355488446587e+002 -7.984422972765e+001 -1.123290973546e+002 6.513786817535e+001 -1.226635326001e+002 -1.637235690498e+002 -3.711731451031e+002 -9.606212845579e+001 -7.726015685580e+001 -2.596332577447e+002 -3.979025146280e+002 -1.584614256211e+003 2.172613482319e+003 3.213149612947e+000 1.649292468799e+001 1.002557935202e+002 5.221561427407e+002 -1.440883739366e+003 -2.099193710014e+003 -7.428167493907e+002 -5.655910336745e+002 -1.238680207058e+003 8.372322995791e+002 -4.736232230546e+002 1.213638298772e+003 1.265774137321e+002 -6.959666790047e+001 1.536993113532e+002 -1.978061289988e+001 2.979913042315e+004
 -1.349028084778e+002 9.288316015509e+001 -1.395015198568e+003 -6.352792505058e+001 4.010951338951e+001 1.781543228761e+003 1.489589178367e+003 -2.111416735601e+003 4.628052692179e+002 -1.381545628143e+003 -1.994919449391e+003 4.931016401191e+002 -2.434974101659e+003 7.675452035507e+002 5.659158098328e+002 8.457571371829e+001 2.528079361624e+003 4.537956206642e+002 2.305877466200e+003 6.675780561926e+002 6.583532358574e+002 -7.356597080301e+002 -2.503171569929e+003 -2.431335892565e+003 -2.621715995439e+003 -9.313770314400e+001 -2.354328098181e+003 -8.913466616349e+002 2.499638732404e+003 -2.212407866063e+003 2.064589755843e+003 1.376765439571e+003 -2.313758847981e+003 2.093549022269e+003 -1.303193238482e+003 -2.286215314254e+003 -1.178541531518e+002 2.165889050417e+002 -1.421160345253e+004 1.491389607272e+002 -1.531447378894e+002 4.442586835907e+004
 -1.712674809602e+003 -9.019415356937e+002 -9.917262451517e+002 -1.496944599911e+002 1.052449029273e+002 2.425677123811e+003 6.361618372159e+002 -2.441469108176e+003 2.862399814177e+002 -1.751019764028e+003 -2.600858782819e+003 7.467304700343e+002 -2.611317364880e+003 1.307591040492e+003 1.504371139920e+003 1.606980539704e+002 3.186319715089e+003 1.174033716529e+003 2.675053897292e+003 8.552747630761e+002 1.277584601365e+003 -4.281646273400e+003 -2.082110310849e+003 -4.217435885577e+003 -5.246142367550e+003 8.823407440348e+002 1.898942653113e+003 -1.863370706174e+003 3.617471429968e+003 -3.856550358372e+002 2.568147415682e+003 2.154132826677e+003 -5.034941771092e+002 5.586165742620e+002 -2.239959898157e+003 -1.461989298103e+003 -9.653264895124e+003 -5.336696821862e+003 -5.836951247639e+003 -7.870550392738e+003 -3.950647532392e+003 2.251200448988e+003 4.278620769819e+004
 -7.911202361052e+002 -3.515095147251e+002 -3.937352558664e+002 -1.893774967639e+002 -9.639065169454e+001 7.502645907336e+002 1.137353624332e+003 -1.110515799114e+003 4.901854985733e+002 -1.466813814274e+001 -1.009399260778e+003 1.273897470113e+003 -1.301220650231e+003 -2.043109601759e+002 -2.626201653788e+002 -7.324486914173e+002 9.132101236902e+002 2.070179926783e+002 7.816849280974e+002 2.826224510464e+002 3.248700259188e+002 2.558793248212e+003 -4.846549665688e+003 4.259670938846e+003 -8.381224676796e+002 -2.635030330599e+003 -5.191927589528e+003 -2.023650633452e+003 -9.268282049889e+002 -1.491202333398e+003 7.902696610183e+002 7.398887413369e+002 -4.110698063694e+002 1.852273090815e+003 -1.393569150224e+003 9.694576966373e+001 -4.626750951201e+003 -2.579797785903e+003 -2.881636844031e+003 -4.136250181877e+003 -2.202304731522e+003 1.620364066534e+003 5.407956815844e+003 3.289775721720e+004
 -2.092225187493e+003 -9.733930681839e+002 -2.353711906963e+003 -4.367213570097e+002 8.891680501711e+001 5.529244788441e+002 6.855243294115e+001 -6.905580394182e+002 -4.138738758722e+002 -1.470899610004e+003 -3.002356782913e+002 -2.673563126456e+003 -1.505975164857e+003 -2.497927495739e+002 -9.180294671260e+002 -1.410226024726e+002 1.265883645500e+003 8.971113186175e+001 9.270373873212e+002 3.922751708134e+002 2.618423653725e+002 -4.755777173179e+003 1.707257261835e+003 -6.481816016054e+003 -2.119832559166e+002 -5.262314651402e+003 -8.746511255667e+003 -1.107361979277e+003 6.055551401043e+002 -7.178656419232e+002 1.263214074171e+003 7.489152971161e+002 -1.981040323625e+002 3.949284699114e+002 -9.263469265720e+002 -6.218359662738e+002 -4.332617053659e+003 -2.684228491108e+003 -2.642787105343e+003 5.050737549273e+003 2.563574193158e+003 -4.365820898785e+003 6.909006429857e+003 4.027834271052e+003 3.153333517042e+004
 -2.162530088029e+001 2.176296436387e+002 1.418722580057e+002 -9.199640396497e+001 1.247154392208e+002 -7.849680535135e+000 -3.006835343426e+002 -3.967058845958e+002 -9.447894164300e+002 -3.891959141616e+002 6.000992470624e+002 7.338004623669e+002 1.304212111158e+002 7.585039748197e+002 1.972254158336e+002 3.742988066804e+001 1.607859837528e+001 1.112478660049e+002 -6.540023661822e+002 -6.613562250715e+002 -3.477955911203e+002 -3.157133390175e+003 2.870286440198e+001 5.721843752852e+003 -1.390204754047e+003 1.834748903453e+003 1.301416963498e+003 7.818837300320e+001 8.111000921324e+001 2.539720168406e+002 -1.130933119873e+003 -1.539901236866e+003 -6.317204032510e+002 -4.824639535807e+003 -2.204846619379e+003 -5.332622024771e+003 -3.973831669939e+002 1.849292370438e+003 1.035186920591e+003 -4.103048450461e+002 1.836753066921e+003 -7.892677098484e+002 -1.046538898367e+004 5.255705491186e+003 3.612790420775e+002 3.094614814226e+004
 3.611270094075e+002 -1.945840729426e+003 -1.101782875462e+003 -1.089829727214e+002 -1.360610535315e+002 2.487638487246e+003 2.063300368517e+003 -2.644443329602e+003 1.091663782246e+003 -1.904186144228e+003 -2.396267447528e+003 1.220912427647e+003 -3.161752917103e+003 9.220657217696e+002 1.235103399602e+003 4.378431915258e+001 2.877689364720e+003 1.029794647346e+003 2.712988699629e+003 3.027247901774e+001 7.052434089208e+002 -1.740672072424e+003 -4.816404071402e+003 1.536588323969e+002 -3.656294778112e+003 -1.246509997005e+003 -9.647703608151e+002 -1.445033250620e+003 3.367174792754e+003 -5.174020041260e+002 2.943056518127e+003 1.837383563132e+002 -1.343560021677e+003 2.252763553327e+003 -4.022841817345e+003 -2.660603529172e+003 2.391508334725e+003 -1.166687257911e+004 -6.459104838941e+003 1.578017661774e+003 -9.760329946867e+003 2.555308035647e+003 2.238777902291e+003 -3.894657675728e+003 -1.728975918342e+003 -1.685371992520e+003 4.478503441369e+004
 3.506212319427e+002 -2.150011628745e+003 -2.355989701975e+003 -1.644847949510e+002 -3.389079308020e+002 4.754389066659e+002 -1.055023331646e+002 -1.459606075359e+003 -2.838229960810e+003 -5.543548604591e+001 -1.409530604833e+003 -9.531145727045e+002 -1.183256352563e+003 2.393145094764e+002 1.275173836421e+002 -8.599493338872e+001 1.092650585441e+003 1.245918876002e+002 5.608846690907e+002 -2.847782262107e+002 -3.916432938517e+002 5.015927594299e+003 -1.733564342807e+003 -8.525588009381e+003 -8.580747512186e+002 -9.235500495207e+002 -8.026371682012e+002 -4.924485401313e+002 1.320347935203e+003 -1.542052473276e+002 1.067677907721e+003 -1.701169512193e+002 -6.609638026285e+002 -3.106101448614e+003 -4.105228789260e+003 -6.591356348922e+003 1.284635164945e+003 -4.904266294662e+003 -2.736717379454e+003 -9.207714334385e+002 5.506015402295e+003 -4.135414421581e+003 -9.651007629938e+002 -6.261246862196e+002 -6.209713587377e+002 -1.993355995292e+003 8.180862374310e+003 3.161124740939e+004
 -1.108776395619e+003 9.831084440624e+002 -5.937581981398e+002 -1.712553340102e+002 1.711649218551e+002 1.393141155332e+003 9.637010115119e+002 -1.134311952664e+003 4.202338330091e+002 -1.085842331418e+003 -1.671423350088e+003 4.785021683906e+002 -1.706636821062e+003 4.154982834336e+001 1.464834287698e+003 -3.945281047027e+002 1.925788600010e+003 5.827405199647e+001 1.468458753287e+003 1.120745000760e+003 7.424297065204e+002 -1.328445569897e+003 -2.503291239399e+003 -3.473126782756e+002 -4.705732927711e+003 -2.705812138272e+003 2.802146116781e+003 -2.880900164887e+003 1.426939551612e+003 -4.323635818650e+003 -6.505624063651e+002 2.305952406776e+003 -1.653267344191e+003 1.632065936495e+003 -8.715906654732e+002 -5.565544738864e+002 -6.263493171329e+003 5.721004206819e+003 -4.476360888310e+003 -4.930214682924e+003 4.880513007730e+003 2.345965861213e+003 -2.249286082888e+003 -2.657297390552e+003 -9.201639050437e+002 -7.683217646561e+002 -3.639476276073e+002 -7.442022172783e+002 3.723544882589e+004
 1.278198183846e+003 -1.100430941440e+003 8.961762757848e+002 -2.688772482468e+001 -1.103705427962e+002 -2.006824817138e+003 -1.482208036800e+003 2.034034714356e+003 -8.814328434601e+002 1.662910337000e+003 7.501196679091e+002 -2.133186121957e+002 2.598809251727e+003 -1.014619795389e+003 -3.005612255953e+002 -6.584941909685e+002 -2.399225376463e+003 -1.349094419737e+003 -2.643831836919e+003 -4.046871443605e+002 -1.155571102813e+003 1.605137430011e+003 5.651979316063e+002 1.546079470314e+003 1.967414412353e+003 -4.488130126061e+003 5.239405046449e+003 -2.068595811465e+002 -4.980765913574e+003 -3.546073671431e+003 -3.024627947965e+003 -1.889323679958e+003 6.979972042323e+001 -2.547065151660e+003 1.266650222855e+003 3.571178022655e+002 6.637056239319e+003 -6.146914505411e+003 4.506312669693e+003 4.833691475561e+003 -5.012650693444e+003 -1.791033388240e+003 2.227106435350e+002 -1.197368117547e+004 7.068063944833e+002 1.104691860336e+003 -8.230375989756e+002 9.369758709691e+002 -7.170439055394e+003 3.898350239860e+004
 -1.671070867729e+003 1.646713536963e+003 -2.323411406005e+003 -6.532201575517e+001 4.515532089651e+002 4.612413095900e+002 7.373808756300e+002 -7.954739443866e+002 1.107549981256e+002 -4.421965910562e+002 -1.844365702075e+002 -4.416740934740e+002 -7.062880859431e+002 1.286890409824e+003 -2.688996327139e+003 -7.075523632454e+002 1.210109140746e+003 -9.598904884541e+002 9.945957309727e+002 5.484274562507e+002 1.852310495524e+002 -8.089020293406e+002 -5.556802959240e+002 -6.572379721617e+002 1.934989956882e+002 5.159542673986e+003 -6.384757655510e+003 -5.045936623064e+003 -1.447783742338e+003 -8.621223986498e+003 1.838172464721e+002 1.191918148952e+003 -7.547217307492e+002 1.172266173439e+003 -7.682247931823e+002 -2.156306214270e+002 -3.899557642518e+003 3.151299003779e+003 -2.519683934421e+003 4.021766955887e+003 -4.150736886733e+003 -4.427807287740e+003 -1.515539845224e+003 -8.738244589325e+002 -6.129501236313e+002 -7.878506410469e+001 -1.298796403968e+003 -4.474472182621e+002 5.928611681107e+003 -5.237126485639e+003 3.143492686726e+004
 -3.784723170428e+002 -1.071759871978e+003 6.137845384840e+002 -8.311899206836e+001 6.275187525628e+001 -1.530908694019e+003 -7.174462271513e+002 2.119227489526e+003 -8.005207403042e+002 9.763540751710e+002 1.530658790204e+003 -7.738589619141e+002 6.266430723520e+002 -1.161909582969e+003 -7.553877187565e+001 -2.931316606273e+002 -2.114356195107e+003 8.498280475164e+001 -1.838401264345e+003 1.658891876083e+002 -1.407513099348e+003 5.084358961212e+002 2.198253495054e+003 2.217061290510e+002 2.218360536389e+002 -1.210629087181e+003 1.218693126576e+003 -4.626391859389e+003 -2.147414206982e+003 5.793388514619e+003 -4.417163965709e+003 -4.366651586221e+000 -4.608198512379e+003 -2.222193210032e+003 2.599102072681e+003 -4.727484706797e+002 -2.466744227274e+003 -5.430661968838e+003 2.916896183242e+003 -2.220064538759e+003 -3.971594020632e+003 -9.351845853877e+002 -5.925637233769e+002 -1.055974179684e+003 7.259492818529e+002 -5.133200845015e+002 1.029690717273e+003 7.579727291525e+002 -1.183705067323e+004 -3.430136480392e+003 4.651017617968e+002 3.441666053755e+004
 -6.702606140462e+002 -1.767474930073e+003 8.573708346277e+002 -9.508545003304e+001 -2.088497080246e+002 -2.106989777040e+003 -2.087706122520e+003 1.801873827247e+003 -8.670622347288e+002 1.129928476324e+003 1.999605991610e+003 -8.440773792364e+002 2.441519353219e+003 -1.125705171855e+003 -6.931980693886e+002 3.330316450754e+002 -2.659920605691e+003 -1.488387446575e+003 -2.552633274757e+003 -9.811034601131e+002 -8.046521969365e+002 6.686768972800e+002 2.872694566825e+003 7.691765304612e+002 3.182746229728e+003 -8.616829410763e+002 7.638680904487e+002 2.711777228183e+003 -4.424421323848e+003 -1.053735777236e+003 -1.861923067639e+003 -3.719773650089e+003 3.434846825815e+003 -2.994278263044e+003 -4.745328209478e+002 1.492987760956e+003 -4.452586588932e+003 -9.904962196889e+003 5.614882477584e+003 -4.030324032101e+003 -7.671188972311e+003 -2.522791539705e+003 6.647554057954e+002 -1.006578210873e+003 1.144140938393e+003 -8.039780848229e+002 -1.042786564201e+003 1.024204174006e+003 -5.145024132975e+002 -2.705482547318e+003 1.084969837257e+003 6.282254266061e+003 4.175394011071e+004