#BIOSYM hessian 1
@Type: Hessian Update
@Units
 distance: 	A
 energy: 	Kcal/Mol
#header
@natom 19

#label
L1      L2      L3      L4      L5      L6      L7      L8      L9      L10     L11     L12     L13     L14     L15     L16     L17     L18     L19

#element
Li Li Li Li Li Li Li Li Li Li Li Li Li Li Li Li Li Li Li

#matrix
57
 1.041157846665E+01
 3.627197068005E+00 5.558549720238E+00
 -5.873904983962E+00 -2.343983750077E+00 1.542583540783E+01
 7.968399988710E-01 4.052307618416E+00 5.022592896375E+00 3.208855147119E+01
 -8.509315038237E-01 -1.072163850552E+00 -3.061021387352E+00 -4.010187260357E+00 1.513894147728E+01
 2.032731877761E+00 7.660228235232E-01 -2.185520350210E+00 2.569728812702E+00 -8.971606626825E+00 1.501522837069E+01
 -8.345512078249E-01 -1.091342608904E+00 4.359191502201E-01 -3.581525369078E-01 -1.822088311505E+00 2.823514344358E-01 4.134551763960E+00
 5.241931136278E-01 2.013067994194E+00 2.214485091365E+00 -2.193104383548E+00 7.610160642772E-01 -4.044885455077E+00 -2.403624924479E+00 7.093974383255E+00
 6.905381947054E-01 4.463021561059E-01 5.576207324042E-01 -1.058957203815E+00 7.352298400900E-01 6.100707677171E-01 -1.257989253057E+00 8.216512435923E-01 2.216044814091E+00
 1.551771602441E+00 8.823343343714E-01 -2.637107007637E+00 -1.890591729255E+00 -3.034470990674E+00 5.018475676726E+00 -2.061169351899E-01 1.796832696343E-01 1.781461617239E-01 7.532876207495E+00
 -9.598564905806E-01 -5.780486216298E-01 2.491747321821E+00 1.132057941381E+00 -3.448692336358E+00 3.564999298620E+00 8.680196008759E-01 -3.164659176409E-01 1.065220637053E-01 4.887542769424E+00 6.213252335116E+00
 -8.012179298474E-01 1.312829475428E+00 1.258923923658E-01 4.309667863294E+00 1.142140451155E+00 -4.025607100689E+00 2.161962246834E-01 7.433940146149E-01 -7.846543374669E-01 -3.339369985515E+00 -2.313868223332E+00 3.866568164236E+00
 6.606474588791E-01 -2.036394234618E+00 -1.253793867523E+00 -4.212720989496E+00 3.672920294551E+00 -6.161349494603E+00 1.382496894205E+00 1.751127904598E-02 -9.266992146982E-01 -6.106862300177E+00 -5.125170510809E+00 2.149879259169E+00 9.661764516895E+00
 -7.922101627424E-01 5.852654906446E-01 7.675412188289E-01 -4.031385059095E-01 9.246747851578E-01 -1.322809260902E+00 -5.625263875914E-01 2.214362292381E-01 -1.878188730421E-01 -5.725127368965E+00 -4.689232321476E+00 1.943727351507E+00 3.279836850352E+00 9.275730165059E+00
 8.240087168814E-01 -1.643911780490E+00 -1.618906589368E+00 -9.064426861099E+00 4.070471739883E+00 -7.800061366826E+00 2.350683354773E+00 2.595316968011E+00 -1.516666940446E-02 -1.550648150282E+00 -2.229320811970E+00 7.076553216696E-01 8.069615116173E+00 -2.980699990462E+00 1.724849798805E+01
 -7.517731597807E+00 -4.738909196511E+00 5.268368654416E+00 -4.975113369491E+00 -3.293067672285E+00 1.789221670044E+00 8.261252752525E-01 -2.037762224350E+00 -5.060532395148E-01 2.742651079377E-01 1.511001741841E+00 -1.951005509271E+00 -9.395404637329E-01 1.712576209991E+00 -7.993579217555E-01 1.913960481988E+01
 -2.704618132943E+00 -3.468085506256E+00 1.391555088314E+00 -8.547768661506E+00 -6.950909048977E+00 2.333644430299E+00 -3.004648881383E-01 8.023025806957E-01 -2.675533265395E+00 2.362030783518E+00 5.066194798437E-01 -2.500322663957E+00 8.989560308573E-01 -4.463292312560E+00 2.151838405201E+00 3.094967852094E+00 2.741069687744E+01
 6.103213438111E+00 1.720335034114E+00 -4.959277728287E+00 -9.370225829880E-01 -2.144251053789E+00 3.447756403740E+00 -1.607317223540E+00 1.015256354323E+00 -1.290744949103E+00 8.662948519064E-01 -1.127707498632E-01 -5.623170403904E-01 -3.720251642776E-01 2.409561794323E+00 -3.389707257594E+00 -4.497650856646E+00 2.689528141912E+00 2.245247551339E+01
 8.292778840646E-01 -1.014063514690E+00 -2.790236358269E-01 -3.460054338806E+00 6.194283965312E+00 8.840690632526E-01 -3.354134189898E-02 -5.924503947231E-01 2.840351299479E-01 1.063185583747E+00 7.001387642103E-01 -2.129023829673E+00 6.283626830114E-01 -1.382585810344E-01 7.769269000061E-01 -1.362937466845E+00 -3.071773768597E+00 -1.465085469725E+00 2.403931794665E+01
 -1.411076094553E+00 2.282349286926E+00 7.552735989800E-01 -1.784124219246E+00 -7.724547624886E+00 3.015420531099E+00 2.896142232754E+00 -5.223599469273E-01 -1.168704981900E+00 -2.108230115883E+00 -8.455401479514E-01 3.185611951974E+00 1.299907192874E+00 2.214217271118E+00 -2.758153836254E-02 -1.338683523584E+00 2.810225225961E+00 -2.675780798270E+00 -2.502190640597E+00 2.235560996020E+01
 -7.414102743799E-01 -1.573335715561E-01 8.910604938320E-01 4.355322311625E+00 3.359798660227E+00 -4.475614576446E+00 -9.370693471510E-02 -1.644593313396E+00 -2.662900111956E-01 -1.936207157021E+00 -1.754921369008E+00 1.255745634112E+00 5.769285142639E-01 3.269425946652E-01 -1.433730179438E+00 -2.002149530329E+00 -3.612350012021E-01 -1.131677685198E+01 -5.619741292013E-01 1.256117645704E+00 1.825778284304E+01
 2.165446661055E+00 -3.079105929875E-01 5.185318772154E-01 7.710641904052E-01 -1.022907573271E+00 1.071318157341E+00 -4.087002165981E-02 -1.214655319601E+00 1.040025580558E+00 6.116998162940E-01 1.066834452450E+00 -6.469854555253E-01 -7.238515508972E-01 -1.483856503700E+00 -1.635938560211E+00 -9.179967889970E-01 -2.128351357040E+00 4.772362650461E-02 -4.446590520136E-01 -1.142444269270E+00 3.796799186213E-01 3.667060777982E+00
 1.175794582712E+00 -3.083993071657E+00 -8.990192635629E-01 4.019728513912E-01 4.563571101099E+00 -2.478149943551E+00 -2.105783981163E+00 5.004492748824E-01 1.252375948818E-01 1.749705209881E+00 1.226324575766E+00 -1.424475593963E+00 -3.212606491519E-01 -2.216857204836E+00 -2.697336072925E-01 7.028230744573E-03 -3.998062800704E+00 -3.868015600023E-01 4.096844841331E-01 -9.075644987856E+00 1.541020888859E-01 1.121873049122E+00 1.694946688200E+01
 -7.145744471399E-01 -2.529430172734E-01 3.179513462586E-02 1.694412852880E+00 2.633053630055E-01 -7.240878117922E-01 -2.858736561451E-01 3.852968061944E-01 2.636114546846E-01 1.275846444289E-01 1.899832058154E-01 7.830461112986E-02 -4.391958992626E-01 -2.035406428327E-01 -3.909170427303E-02 -8.511046895912E-01 2.941108306109E-01 4.489385804635E-03 2.603010845706E-01 -9.466838846832E-01 8.076529491245E-01 -6.209954222798E-01 -9.642746781087E-01 2.179007854711E+00
 -2.343934823422E+00 5.440193652002E-01 -2.442339127222E-01 2.782564414602E+00 6.492481004316E-01 -7.834016513018E-01 -3.306009644087E+00 3.099359520842E+00 8.927693947634E-01 -7.955490982130E-01 -4.771666009395E-01 1.484659840062E+00 -6.506668192015E-02 -2.195455100689E-01 -3.993020882668E-01 -7.324661860518E-01 3.712011100001E+00 8.166281029124E-02 1.552487083677E+00 1.067464426510E+00 9.503740716025E-01 -1.782471465366E+00 -4.230398786014E-01 1.415955387294E+00 1.311475551488E+01
 -7.808074575494E-01 -2.268171830675E-01 -3.601810816183E-02 -1.391641305058E-01 -2.189798966676E+00 -1.073691720244E+00 3.544230141217E+00 -3.092317749650E+00 -1.177942045249E+00 -4.125526303495E-01 4.078071512537E-02 1.195155504835E+00 9.152319086146E-01 -9.952470366947E-01 4.848419995477E-01 8.857485726635E-02 2.493672968239E+00 -9.813058754044E-01 1.629222706157E+00 1.191639917516E+00 7.247107640051E-01 1.999079514316E+00 -1.022059007384E+01 5.227946003315E-01 -3.247913176974E+00 1.621389505417E+01
 -8.529073310879E-01 -5.614292707053E-01 6.333658723465E-01 -1.166794246206E+00 -1.463516188308E+00 1.820000707084E-02 2.883349926878E+00 -2.108519888663E+00 -1.794855729161E+00 1.408695992699E-01 1.206736316504E+00 -3.321984211109E-01 1.001443633395E+00 4.776532811161E-01 8.070291528532E-01 4.386491282311E-01 2.019774435186E+00 -5.401020605991E-01 6.890891727251E-01 3.324901089020E-02 1.108901922287E-01 -8.125546105813E-01 1.855175619788E+00 -1.572677216966E+00 5.573387905646E-01 1.133220970777E-01 1.111861532960E+01
 -5.812582534680E-01 7.707947528607E-01 2.265011912342E-02 4.430234710095E+00 2.188979540989E+00 -1.399649787576E+00 -1.625340425276E+00 3.135823632946E-02 -1.158857836088E-01 -1.064870551417E+00 4.115031407070E-02 1.749413689071E+00 -1.305807493665E-01 -1.309293092795E+00 -1.096136958690E+00 -1.411400787026E+00 -3.124866092611E-01 -4.225991461672E-01 9.249577232982E-01 5.128290084528E-02 2.157116793722E+00 2.982951260959E-01 2.443702654335E-01 -3.750917324491E-01 3.545231308824E+00 1.546841664865E-01 -1.524168303437E+00 5.708724234411E+00
 -1.527508941138E+00 -2.965877330722E-01 2.397328396760E-01 8.509607134793E+00 7.226077848864E-03 -2.932007169513E+00 6.829616132800E-01 1.528997676587E+00 -5.714418124283E-01 7.860633055884E-01 1.896994136225E+00 2.090919851650E+00 -1.316862100853E+00 -2.601555446208E+00 -2.091853374945E-01 -2.983386531112E+00 -3.865438109460E+00 -5.659826346137E-02 -4.156222787137E+00 -1.281928764927E+00 2.182975634450E-02 1.788078607131E-01 3.099655394031E+00 2.945250169408E+00 2.480783323308E-03 -7.850849372416E-01 -4.294761098720E+00 -5.376307657371E-02 1.352176489285E+01
 1.242888814868E+00 -2.719462462834E+00 -2.918986763574E+00 -3.353139055676E+00 -8.336529595858E-01 3.439573812927E+00 -1.515945747740E+00 1.863101310815E-01 1.803536547854E+00 2.681686380006E+00 8.201786596624E-01 -2.263704402591E+00 -1.003454068316E+00 -2.830305298324E+00 -1.047836136537E+00 -4.682576344789E-01 5.986126676810E-01 3.645731311749E-01 -1.868144968827E-01 -1.414356551549E+00 -1.734292251076E+00 2.690158314145E+00 3.836577460876E+00 1.137967150643E+00 1.658733376103E+00 -1.691870352103E+00 -5.254071405540E+00 -1.698946640690E+00 4.177379369109E+00 1.188762416618E+01
 -9.060016941364E-01 -7.364693656412E-01 -5.402524421351E-01 2.142367345121E+00 1.247176901085E+00 7.378518315834E-01 -6.209187752612E-01 6.079041507782E-01 -1.540686131511E-01 -1.018145782401E-01 -4.871398443168E-01 -2.785363553141E-01 5.794492719481E-01 -1.326692183848E+00 -1.643330015745E+00 -5.116024648873E+00 1.774141381193E+00 -3.160121053817E+00 -7.194134139282E-01 5.168457632703E-01 6.693205726059E-01 5.551489527106E-01 2.760641448595E+00 9.542285182601E-02 6.770358684627E-01 -1.449689188168E+00 -9.795241108000E-01 1.851014052571E-01 2.495439162894E+00 4.187362511942E+00 1.029460367704E+01
 5.657335962725E-02 -1.329856353828E+00 5.930107239844E-02 7.889251263470E-01 2.286725484796E+00 2.865395018635E-01 1.221499667813E+00 -2.155048023874E+00 -5.811266572186E-01 -7.714574397101E-01 1.064508558153E-01 7.716546200976E-02 1.007071191216E+00 -8.994150077505E-01 -9.135098342656E-01 2.155847340408E+00 -1.043793104112E+00 1.098307199946E+00 1.000067676500E+00 -5.133004650041E-02 2.122007734708E-01 8.679947384230E-01 -1.062878384938E+00 -2.180566336764E-01 -1.098842182620E+00 3.464790197512E-01 -9.664026991176E-01 -3.514652937104E-01 2.298675431380E+00 2.209660453852E+00 -1.979138871300E+00 1.429297725740E+01
 -9.134827612153E-01 -7.248723102282E-01 9.414539956910E-01 1.678688799051E+00 -5.969137154809E-01 1.637744464240E+00 1.184993136875E+00 1.262877782714E+00 -7.662610326137E-01 5.613861503500E-01 2.584235427716E-01 5.431702184404E-01 -6.482758571781E-01 -1.578439098953E+00 2.166148930931E-03 -1.695518036214E+00 -2.035949247360E-01 -4.615318548847E-01 -2.698773348982E+00 3.365528527443E-03 -1.060388757547E+00 -2.612216378091E-01 1.469139291680E+00 -2.383260457050E+00 6.333994318213E-01 3.929369326506E-01 2.595973217756E-02 5.512259315161E-01 4.609548761251E-01 2.699867774849E+00 3.066684549235E+00 1.435603427306E+00 1.748262052762E+01
 -6.032019139698E-01 2.783176355162E-01 5.597737664094E-02 2.167231406918E+00 1.764285078197E+00 1.117675457606E-01 -1.328121576082E+00 -1.096063681781E+00 1.239020707352E+00 -5.266774596080E-01 -5.880051487209E-01 4.767365392681E-01 -1.266215118486E+00 -6.181040949069E-01 -3.999746641924E-01 -6.608915284292E+00 -1.472472934786E+00 3.115775691513E+00 -4.593688515775E+00 -2.957109275864E+00 -6.230119728689E-01 2.904873249598E-01 2.240303697557E-01 7.216731774525E-01 -6.825326735995E-01 -1.245973765495E+00 5.817053891954E-01 -4.579344622739E-01 8.647847157488E-02 -5.215955118982E-01 -6.123471196561E-01 1.443674526409E+00 -3.138450218509E-01 1.771787565352E+01
 1.602987527803E-01 -4.972706317460E-02 1.228507190810E+00 -4.415014274127E-01 1.737906108746E+00 -1.257780434846E+00 -4.795324696251E-01 -1.645435927355E+00 1.671723253060E+00 -2.829037064205E-01 -4.906661602987E-01 2.787670188899E-01 -1.937081767039E+00 1.242097911606E-01 -1.314018227848E+00 -3.421484035830E-01 -3.610484869733E+00 -1.624282740915E+00 -2.765450065203E+00 -1.249167027913E+00 7.217851238947E-01 5.826154321482E-01 2.884130194797E+00 6.032569964463E-01 -1.243832385639E+00 -3.126429353792E-01 8.133311043208E-01 -2.034945231445E-01 -5.747850124115E-01 -7.713599275041E-01 -2.258179674014E+00 -1.517080524973E+00 -2.173160704997E+00 2.884265875126E+00 1.313025755516E+01
 7.266723687274E-02 1.348848947787E+00 -1.841825767347E-01 2.755590445925E+00 1.079759841667E-01 -7.657194635235E-01 -1.033603733283E+00 -1.181013278452E-01 -4.240350919303E-02 -4.636920452169E-01 5.617017032669E-02 -1.538807982684E-01 2.376339090006E-01 4.073191430322E-01 -1.594348510369E+00 2.890333146187E+00 1.012985884649E+00 -3.288739149315E+00 4.775638478437E-01 -3.823526543359E+00 -9.025291239089E-01 -4.222763524126E-01 -6.200219877843E-01 5.320471573567E-01 -6.620358487341E-01 -5.065023095284E-01 2.586852161682E-01 -1.632114007576E-01 2.344822287129E-01 -2.625054591027E+00 -2.617824907472E-02 1.097504427235E+00 -8.164660947231E+00 -2.412276956876E+00 -3.440782785169E+00 1.385894638525E+01
 -1.519173238820E+00 5.830725386421E-01 -5.606182519740E-01 2.222235841272E+00 -2.716754967307E+00 -2.256877361601E+00 6.783191864170E-01 -5.830519108942E-01 -1.251951007243E+00 -1.755115690381E+00 -2.404519190528E+00 3.105145021807E+00 1.618437732600E-01 1.976827172074E+00 -1.307685420443E+00 1.886955323273E+00 1.519011497757E+00 -1.089947030316E+00 -7.841048397472E+00 6.190201041852E+00 3.204213866096E+00 -9.108884094310E-01 -1.253297603872E+00 5.264890548168E-01 2.405686393506E-01 8.524722621359E-01 -7.186150815048E-01 -1.060599933523E+00 2.977035766705E+00 -9.278064757964E-03 -1.571853409062E+00 5.550115433423E-02 9.948454187722E-01 -4.979964931937E-01 2.911850029174E+00 -1.992344894607E+00 1.049131815417E+01
 -4.405083421156E-01 -1.414084918942E+00 -1.192431736729E-02 -2.760822778773E+00 1.213025578523E+00 2.458559011967E-01 -2.282115900107E-01 5.467639509986E-01 1.107182775056E+00 1.068435912739E+00 7.895380852834E-01 -1.284559543430E+00 -1.248236558645E-01 -1.104895513286E-01 1.463108419318E+00 5.388510107297E-01 -2.215127754894E+00 -1.033307103824E+00 4.307919847706E+00 -2.600981092182E+00 -1.819055484484E+00 -6.547259883628E-01 -1.778045176395E-01 9.567112099761E-01 9.991279146329E-01 8.606052857371E-01 -5.024055878798E-01 -1.145471948668E+00 -8.756919040131E-01 2.075089713833E+00 -8.722724431832E-01 7.448525436085E-01 -3.684734232040E-01 9.959097707047E-01 3.100458001186E-01 6.853367246434E-01 -4.565897539475E+00 9.993701501221E+00
 2.194363276635E+00 -3.308931094024E-01 -1.530451342854E+00 -3.595819229673E+00 2.509032977248E+00 2.138704666509E+00 -1.157416802766E+00 -2.093891146104E+00 1.909175796869E+00 9.197313320610E-01 -7.188716482991E-01 -2.111538828631E+00 -9.267715590950E-01 -1.987181231041E+00 -3.902662169997E-01 -3.064780204206E-01 6.606744894390E-01 -2.117002358711E-01 4.045476391262E+00 -2.446557554317E+00 -1.109138646230E+00 2.391827791854E+00 1.117860076332E+00 -2.108750427430E-01 -1.045283901870E+00 -2.222350391102E-01 -2.126516286509E+00 -6.721057963108E-01 -2.700100743659E+00 3.493877057735E+00 7.301054769475E-01 -2.931872906593E-01 -1.697145465197E+00 2.271421913871E-01 2.288618240388E+00 3.186217088412E-02 1.000602220118E+00 -5.122525677983E+00 1.322626798313E+01
 2.309072746231E+00 -6.129143994246E-03 -9.855879531539E-01 -5.388090531121E+00 -9.421310689143E-01 2.489887315354E+00 5.881187507328E-01 -3.872921187351E-01 7.806613342228E-01 1.288075473936E+00 2.549815704385E-01 -2.296051335024E+00 3.856276837245E-02 5.051276913325E-01 1.181074732135E+00 6.162440913141E-01 -1.606659300221E+00 -6.443901254084E-01 -5.300959964547E-01 -5.758813676326E-01 -2.183976230428E+00 2.482768730851E-01 2.162216990122E+00 -1.298473332347E+00 -4.271938202390E+00 -3.071052542707E+00 1.640644281628E+00 -3.496633904564E+00 -3.042606452264E+00 7.370656593681E-01 1.430137421375E-02 -3.708486594143E-01 -9.686568375234E-02 8.844370807011E-01 5.514250370820E-01 1.147253056598E+00 -1.573254891855E+00 1.073229274273E+00 1.300727433425E+00 5.278801138350E+00
 1.531240930042E+00 5.754181000816E-01 -2.636264051144E-01 -3.620434106774E-01 1.183579284124E+00 1.645453582397E+00 -2.072384858230E-01 -1.101863053967E+00 8.059812074696E-01 3.251883158388E-02 6.929093054054E-01 -1.279239042931E+00 -5.985937786189E-01 -5.207831384514E-02 -8.724640012175E-01 -2.922197715534E-01 -3.661314058631E+00 -3.986581839163E-01 -1.441375438963E+00 -2.246365862746E+00 1.524505423251E+00 2.070693684567E+00 3.239008509947E+00 -1.349476692798E+00 -4.551292371081E+00 -3.754797708088E+00 -5.013306227250E-01 8.685158651269E-01 -4.546565270348E-01 -1.146351069817E+00 8.858562997087E-01 -1.858656691710E+00 -1.716964635482E+00 8.717824729205E-01 -6.065430544927E-01 1.166621777410E-01 -1.718504011967E+00 -7.737217451788E+00 5.356624284504E+00 1.989928339374E+00 1.390166120241E+01
 -1.356022548484E+00 -1.358942389346E+00 1.154788104028E+00 3.866541909811E+00 -8.612814627853E-01 -2.379710170831E+00 1.341558339676E+00 -8.888408243966E-02 -1.515291106603E+00 1.036458609988E+00 1.150847923878E+00 5.829653281930E-01 -2.681127741011E-01 -1.209673497560E+00 1.596725385523E+00 2.608736851826E-01 8.774759126495E-01 -3.214318831955E-01 -5.597185742099E-01 -2.136723509098E+00 5.592845160077E-01 -1.551920978646E+00 2.327701626951E+00 1.778687298026E+00 -1.116454605047E+00 6.993076909477E-01 1.073469661956E+00 -1.129279015485E+00 4.735419059026E+00 -1.015031267102E+00 -1.081266106480E+00 -3.807608549076E-01 -1.705499148028E+00 7.307876527319E-01 1.371918163619E+00 6.674358592316E-01 1.042301277543E+00 3.834618797135E+00 -5.426025440295E+00 -1.032294526554E+00 -5.283097173492E+00 7.696798863753E+00
 -1.041284982918E+00 -1.076527800936E-01 7.614212027670E-01 -4.252871226791E-01 8.019054515823E-01 -7.641630864627E-01 1.648749080642E+00 5.822568296373E-01 -1.026212191268E+00 1.416880278228E+00 1.207275791862E+00 -5.152533680132E-01 -1.289974048602E+00 -7.960807041278E-01 1.351482676251E+00 -8.131369270618E-01 -4.901754121675E-01 4.526290984354E-01 -8.241958004177E-01 6.427298251862E-01 -8.141847796584E-01 -1.712576316235E+00 -1.953406205565E-01 1.158937891090E+00 -6.289949668050E+00 -1.104201020651E+00 -2.917790065665E+00 -2.326891881153E+00 5.227491697352E+00 -8.893518922454E-01 5.810149639030E-01 5.607333401073E-01 -1.004721227905E+00 -3.759345666743E-02 -6.117879648144E-01 4.114342338502E-01 3.521927976291E-01 7.124639115634E-02 -1.668819455618E+00 1.051840871400E+00 1.251064013922E+00 3.515988910593E+00 9.132137016352E+00
 2.540475796912E-01 5.582645247616E-01 1.571823621057E-01 1.116650170464E+00 -2.282171989800E+00 1.074187381780E+00 3.995546228795E-01 -6.007367361751E-01 -2.447516489717E-01 -6.624873965741E-01 -7.995492682732E-01 3.042860840888E-02 5.652364382796E-01 1.758372810519E+00 -1.142645993611E-01 1.049440537945E+00 1.341455234609E+00 1.236278423848E+00 -7.085746410535E-01 -1.263884784148E+00 -7.996517020322E-01 -3.307543207643E-01 -1.453722241500E+00 -1.805698872571E-01 1.436727913628E+00 1.232033277480E+00 3.739489322249E+00 -9.818913385432E-01 -2.677402123499E+00 -2.121485954329E+00 -1.659552450546E+00 -1.686556266064E+00 -5.057275100140E-01 9.117212916318E-01 1.630340602235E-01 5.730449316541E-01 6.384659534216E-01 -7.455156272886E-01 2.291814319285E-01 2.608622894237E-01 -4.367384836012E-01 -1.161626199180E-01 -2.873043238409E+00 3.601070225139E+00
 3.715536474159E-01 -2.724576328918E-01 6.142702951407E-01 -1.655934682328E+00 2.389807892040E+00 8.763597356098E-02 -1.176093608416E+00 -3.504570192241E-01 6.372785692857E-01 -1.021889114464E+00 -8.055037663923E-01 -1.533839317427E-01 5.282390004956E-02 1.560736202338E-01 -1.172108767725E+00 7.289981581138E-01 -2.025794186676E+00 -1.377386798545E+00 1.181824568879E+00 1.461343431303E+00 1.080916814892E+00 1.073767403201E+00 -4.718978421424E-01 -1.336144491917E+00 -3.974943532926E+00 1.200224532474E-01 -6.161652343344E+00 2.516394159918E+00 -1.830241571858E+00 4.834902583914E-01 1.133549988761E+00 -2.024868755085E-01 1.245314618903E+00 -1.520213603482E+00 -1.048470752660E+00 -1.234158901481E-01 -1.640295193953E+00 -1.624937273325E-01 1.544225863115E+00 3.324553773743E-01 3.040502810977E+00 -2.790907126796E+00 2.061404458991E+00 -3.656654110379E+00 8.824076588948E+00
 -7.766516564876E-01 1.350801937802E+00 1.953061324330E+00 1.306179757728E+00 -1.415972519127E-01 -1.816206923159E+00 -1.013008474349E+00 3.546741174243E-01 -3.306890134798E-01 -9.241728566270E-01 -8.331051658089E-01 1.175903568208E+00 -3.664726792669E-01 1.181236422399E+00 -1.723148775225E-01 2.163390857814E+00 3.441393515277E-01 2.315294898510E-01 -1.356710305624E+00 1.059247294664E+00 -1.983063416358E-01 -1.077738949938E+00 -2.486619185549E+00 -7.144267624977E-01 1.992796462078E-01 1.960249115233E+00 3.729688179298E-01 1.222867588396E+00 -4.163064947095E+00 -4.841790334897E+00 -2.479642996710E+00 -2.080142866010E+00 -9.987773360791E-01 1.452078534425E+00 2.412647758232E+00 1.609409017370E-01 1.419242161673E+00 1.154489976062E-01 -9.985336059748E-01 -6.562194860984E-01 -2.128839556991E+00 1.865506839155E-01 -1.635166118438E+00 8.444070183434E-01 1.373304056342E+00 6.535607527561E+00
 7.016497149768E-01 -6.957729971914E-01 -4.103721958817E-01 -1.548637206757E+00 -1.958966669654E+00 -1.557154683432E+00 -1.837380567347E+00 1.036069194349E+00 2.745054314610E-01 5.231301883976E-01 9.316168324163E-01 2.947831259257E-03 4.969435672325E-02 -1.996111794903E-02 1.748535385530E-01 9.582428315587E-01 3.829984545003E-01 2.387248351582E-01 -5.301055958720E-02 -1.875331726833E+00 3.168699153767E-01 2.738945710903E-01 2.473847712741E+00 2.181025329125E-01 1.251979551132E+00 8.927673923427E-01 -1.212564191821E+00 9.663471700037E-01 -1.410558597485E+00 6.276050314807E-02 -1.819979681173E+00 -8.108881190999E+00 -6.119440953012E-01 -5.320685472463E-02 -6.653679624968E-01 8.336746979290E-01 1.218176360229E+00 -6.087564208205E-02 6.269755961134E-01 5.133225491942E-02 4.060375540608E-01 4.042151703952E-01 -2.816715107608E+00 5.763298885796E-01 1.510745450474E+00 3.426801058567E+00 1.471299692745E+01
 1.475184049151E+00 1.390963791997E+00 6.794380103099E-01 2.299390242187E+00 1.149603436620E+00 1.144250468492E-02 5.083833491859E-01 -7.845794391900E-01 9.249443260943E-02 -1.179896857422E+00 -1.641809373253E+00 2.442550376999E-01 1.592429830804E-01 7.841164984109E-01 -2.152607044580E-01 -2.361214705720E+00 7.962352237974E-01 1.910799087185E+00 5.951503611557E-01 -1.882010313849E+00 -5.138784025152E-02 4.940635672379E-01 -1.884047084893E+00 -7.054431798302E-01 -9.110264118503E-01 1.710654639483E+00 2.196375694983E+00 7.010471813417E-01 -2.982466967939E+00 -3.326115853923E+00 -2.366077733145E-01 -1.156473088486E+00 -9.219587787827E-01 -1.030443385438E-01 2.062695315396E+00 -1.842441354627E-01 -2.027969322910E+00 2.664750276686E-01 4.632653278021E-01 -5.455796392880E-01 -9.501165607359E-02 -3.352307042108E-01 -1.625887286374E-01 1.468615496674E+00 -2.838841175398E-01 -1.312402994913E-01 -6.153572782184E+00 8.917109611623E+00
 -3.299386082285E+00 -5.934331693721E-01 2.246229859997E-02 -1.337446309484E+01 7.203374237127E+00 -8.548413845142E+00 -9.835507551667E-01 2.895436546770E+00 7.065945141079E-01 -7.204212606214E-01 2.495000498176E-01 -1.460011682469E-01 -3.621579415806E-02 1.166797338223E+00 2.006036647610E-01 1.870057300663E+00 3.316800003643E-01 1.618725779911E-01 -7.603481472024E+00 -1.560369900572E+00 2.293533914021E+00 2.391928539751E-01 -7.138126499782E-02 -7.099159583581E-01 2.911223497289E-01 2.175595042077E-01 1.347118439496E+00 -4.360224897643E-01 -1.861059347915E+00 -1.005283365105E+00 6.134970950022E-01 -5.431550927240E-01 -8.192657094935E-01 -1.574848855091E+00 1.459449856182E+00 4.350709105284E-01 1.520402016351E+00 -9.907606146511E-01 6.013465127335E-01 4.012557864167E-01 5.166730245988E-01 -3.347504354493E+00 4.178303987255E-02 -1.539209546125E+00 1.163186652319E+00 1.183541741767E+00 1.691103964767E-02 2.328159687217E-01 2.490940121469E+01
 7.207054595320E-02 -1.128166549144E+00 -1.446131339879E+00 8.195084129665E+00 -4.150482414348E+00 6.894623856641E+00 2.253713912332E+00 -5.940504351310E+00 -3.378780744806E-01 8.903982464125E-02 8.387839645085E-01 -8.736182126776E-01 -5.648372308310E-01 -9.542686341327E-01 -7.973344071911E-01 2.138306170813E+00 -7.901085340968E-02 -3.167614201716E-01 -3.244038017864E+00 1.032506963333E+00 1.282433479529E+00 -2.409119048535E-01 -1.679542220161E+00 5.593039382840E-01 -3.563575683608E-01 -6.252063251663E-01 3.579802832864E-01 4.226580407726E-01 3.810668762339E-01 -5.206873258993E-02 -1.004933368229E+00 3.092329262047E-01 3.859286961771E-01 3.452405676953E-01 -4.692204733298E-01 -2.155016234896E-01 2.593123723435E-01 -2.467396942025E-01 6.825678406907E-02 -9.697585164445E-03 1.181570249858E+00 9.546027527433E-01 5.163574092034E-01 1.034042288294E+00 -1.747904733420E-01 -1.250897927374E+00 -1.346217656302E+00 1.448930836908E+00 -7.267659039695E+00 1.202681254781E+01
 -2.740963097134E+00 5.922276981147E-02 -7.259962268021E+00 -9.416732501858E+00 6.115805385633E+00 -2.777956594871E+00 -9.657430736950E-01 -7.446204425125E-02 -6.601929677823E-01 8.839747079360E-01 -1.603670862679E+00 7.501441329152E-01 -1.414272773348E-01 1.199021805177E+00 -5.784584787663E-01 1.482953515274E+00 -7.176554182887E-01 5.832927836038E-01 3.159218171146E+00 -5.785853794449E-01 -1.498831901658E+00 -1.686304268195E+00 1.064411176205E+00 -3.147633897326E-01 1.057378639519E+00 5.730455196211E-01 1.607596738269E-01 4.771289860125E-01 -5.499260314853E-01 3.447979956339E-01 -3.124335028064E-01 6.581381186853E-01 -1.058228950569E+00 -2.598849586646E-01 2.967017212550E-01 8.316501322912E-01 1.505750847972E+00 -2.677535058146E-01 1.368292098393E+00 -5.381033120964E-01 -3.669247623979E-01 -1.358365670596E+00 -9.516473075105E-02 -8.206764920342E-01 1.627379039487E-01 -5.731577342591E-02 1.794767499266E-01 -1.648737293634E+00 6.607578355009E+00 -5.161076936549E+00 1.177669518308E+01
 9.079034566644E-02 -1.222496488284E+00 -1.993484821314E+00 -1.237904013163E+01 -4.517536592914E+00 3.134311869087E+00 5.383969941955E-01 1.372933044466E+00 3.636028865932E-01 1.049974301311E+00 -2.735528914955E+00 -2.523037157039E+00 1.597014187677E+00 4.368590410442E+00 4.140909433227E+00 6.006502731145E+00 4.289239367116E+00 1.198198802749E+00 2.692256587348E-01 2.493604631862E+00 -3.406408226145E+00 -2.105552473746E+00 -3.336336878561E+00 5.040490370309E-01 -2.424892948856E+00 1.197027888157E-01 -4.533601857014E-01 -6.667945643642E+00 -4.321972447297E+00 2.438505467422E+00 -2.717960109577E+00 -3.797741808688E+00 -1.471552782226E+00 -1.616982917734E+00 -5.243497279809E-01 -2.374102296547E+00 2.140937857381E+00 3.517277138307E+00 -1.309186726936E-02 4.104337919355E+00 -3.507582241622E+00 1.378865186737E+00 1.716741594490E+00 2.329158407107E+00 -1.982697664408E+00 -7.283037430994E-02 1.049528912058E+00 -7.142168171927E-01 -1.911515956009E+00 -4.621233173966E-01 1.036752412287E+00 1.836237389966E+01
 9.255847695906E-01 1.362947119484E+00 -6.119020135150E-02 -3.994638674748E+00 1.755514979367E+00 1.996435971628E+00 -9.610931798904E-01 9.933941602781E-01 7.328520252656E-01 1.421585348315E-01 -1.780092542954E+00 -1.500780816384E+00 3.766781989523E-01 1.600749789781E+00 9.213217113040E-01 4.250355685025E+00 -1.633804225805E+00 -1.743540724524E+00 3.554126078203E+00 -2.162909686942E+00 -3.648321407879E+00 -6.765384710549E-01 -1.080213958995E+00 -2.824893926897E+00 -1.085588236582E+00 -7.836598071502E-01 7.915860190142E-01 -2.673599742060E-01 -7.909164540267E+00 -1.998411963545E+00 -7.714050652478E-02 6.238310410903E-01 2.945025441178E+00 -3.221334840997E+00 -1.168820959432E+00 2.054261693729E+00 -3.991217733021E+00 3.071617963574E+00 5.265076372083E-01 2.974056044770E+00 -1.906583061483E+00 -3.013197529400E+00 -2.106239425704E+00 8.119723943227E-01 2.721712405326E+00 2.626554174599E+00 -3.146085657688E+00 3.420074984307E+00 6.985102701347E-01 -1.402863955952E+00 9.413025138205E-01 3.715115255319E+00 1.219702247717E+01
 -6.486897599891E-01 3.487248353437E+00 1.827073245959E-01 2.469599751682E+00 -2.613368016660E+00 -1.713367116549E+00 1.164062387774E+00 7.833778004696E-01 -6.303702227474E-01 -1.527744997746E+00 3.094407780889E-01 3.090575200020E+00 -6.967078510547E-01 3.872811512342E+00 -1.798339538552E+00 7.960256668798E-01 -6.539754922951E+00 -1.913700274847E+00 -2.857688159092E+00 5.945776642009E+00 1.868122043099E+00 -1.746015463806E+00 -3.877562222933E+00 -1.706759826708E-01 3.398644866700E-03 1.123003724621E+00 2.260299140610E+00 -3.464234981347E-04 6.011374896910E-01 -5.938546754368E+00 -5.219208026848E+00 -5.091569666060E-01 -8.040656715140E-01 -1.448993112042E-01 6.311930180708E-01 2.046338863566E+00 3.865304957737E+00 -6.590002545147E-01 -5.363428340442E+00 2.719708554201E-02 -6.523320363762E-01 6.721900087380E-01 -2.043943609503E-01 1.081678527010E+00 -1.562267915725E+00 2.760075153449E+00 4.170067987713E+00 -3.820136514454E+00 1.117104799346E+00 -1.229835173583E+00 1.646794255854E+00 -6.604863686855E-01 -1.937405565943E+00 1.271230569255E+01