#BIOSYM hessian 1
@Type: Hessian Update
@Units
 distance: 	A
 energy: 	Kcal/Mol
#header
@natom 2

#label
L1      L2

#element
Li Li

#matrix
6
 1.193853179507E+03
 1.258735219033E+02 2.225728112347E+03
 -1.368264799077E+02 1.641076293489E+01 2.223066610955E+03
 1.046992941214E+03 -1.258735219033E+02 1.368264799077E+02 1.193853179507E+03
 -1.258735219033E+02 1.511800837365E+01 -1.641076293489E+01 1.258735219033E+02 2.225728112347E+03
 1.368264799077E+02 -1.641076293489E+01 1.777950976590E+01 -1.368264799077E+02 1.641076293489E+01 2.223066610955E+03

