#BIOSYM hessian 1
@Type: Hessian Update
@Units
 distance: 	A
 energy: 	Kcal/Mol
#header
@natom 19

#label
L1      L2      L3      L4      L5      L6      L7      L8      L9      L10     L11     L12     L13     L14     L15     L16     L17     L18     L19

#element
Li Li Li Li Li Li Li Li Li Li Li Li Li Li Li Li Li Li Li

#matrix
57
 2.998818195947E+01
 6.263049042656E+00 2.971481455297E+01
 -9.087562839864E-01 -2.619951037908E+00 2.362211578615E+01
 -1.519112603399E+00 2.254024715446E+00 2.239910833111E+00 2.595043715458E+01
 4.682751606909E+00 -3.705997063528E+00 -2.159514123160E+00 -1.692327480285E+00 2.002420312826E+01
 -1.981624918379E-01 -2.427783486080E+00 -8.461115800293E-01 2.476803303756E+00 3.785279831598E-02 2.618791826004E+01
 -8.499746292434E+00 2.363321988351E-01 1.089887931565E+00 4.673946675186E-02 -1.054832035307E+00 1.135163916937E+00 2.344344921032E+01
 -5.740251453939E-01 -5.601109239020E-01 -3.026702463561E-01 -3.592023619882E-01 9.038766666166E-02 -9.843049878355E-01 -7.334072406145E+00 9.248090644540E+00
 -8.674173810694E-01 4.438980867493E-01 -1.005224955531E+00 -2.035824868361E-01 1.022261693291E+00 9.519281892416E-02 -9.574251065120E+00 4.019373813893E+00 2.185567180862E+01
 8.661928129958E-01 -1.210715827247E+00 -2.377178829457E-01 1.340753357825E+00 6.415928095159E-01 -3.181911071988E-01 -1.145592061309E+00 -7.469172732046E-03 3.722564594619E-01 2.138246084234E+01
 -1.940200081938E-01 -2.498386157407E-01 -7.382410380505E-01 -1.072207888690E+00 2.480446829520E-01 -3.779543737481E-01 5.267789451228E-01 1.177796981534E+00 2.865164663318E-01 8.468565797787E+00 2.266082294546E+01
 -4.682759121415E-01 -1.480963137806E-01 -4.660713587926E-02 4.527582669415E-01 -1.946850025450E+00 7.200415357469E-01 9.042301537875E-01 -6.039865347228E-01 -3.692287385650E-02 -2.628452502636E+00 -1.000286226627E+01 1.594540393606E+01
 -3.289519412394E-01 2.984122315622E-01 -3.738736529871E-02 3.152450820978E-01 1.804200201683E+00 -8.446107182284E-02 5.682439248809E-01 -4.268483410858E-01 4.908180219866E-01 -1.448797813580E+00 -1.993857426580E+00 1.932086170947E-01 2.393235647317E+01
 5.874866873288E-01 -3.138018500701E+00 -5.288105691231E-01 -6.275716066092E-01 2.253515092321E-01 4.574706130948E-01 -4.525222682633E-01 -6.589470467567E-01 -1.357142443478E+00 1.717755951009E-01 -1.466903439109E+00 -3.467096588340E-01 -1.928332847218E+00 2.178090936012E+01
 -2.721965039948E-01 -1.166552973653E+00 -1.470472573196E+00 9.917510356470E-01 -6.874604969585E-01 4.630196847827E-01 -1.469783225568E+00 9.284591134386E-01 -7.878089811336E-01 4.125556858773E-01 1.040227368628E-02 -8.654700888487E-01 -4.411439028624E-01 8.536979761034E-01 2.866613960983E+01
 -2.104786343909E+00 4.874554046026E-01 -3.838742529866E-01 -1.380175000524E+00 9.356619322939E-01 -1.140316835366E+00 3.360734002071E-01 -5.838405016612E-01 -4.309713607951E-01 -8.666175679841E-01 -6.708768284867E-01 -6.319123532500E-01 -1.029063805272E+00 1.807901408718E+00 9.998513169726E-01 3.118095432360E+01
 -5.830660079704E-01 -3.330621853439E-01 1.010916806125E-01 1.320722894131E+00 -8.945546046616E-01 -2.966094582591E+00 -2.349182970642E-01 -2.393342482030E-02 3.190051899940E-01 3.263775125028E-01 -7.786243907390E-01 -9.475010924339E-01 1.693326427880E+00 -4.820735102373E+00 3.685756655474E+00 -3.699905865253E+00 2.214520146554E+01
 1.768253865785E+00 -5.925774142455E-01 -1.277908680078E-01 9.457182213736E-01 -3.454149923566E+00 -6.187035766130E+00 9.005639231931E-02 -2.605505750476E-01 -9.055411091652E-01 8.141563779164E-01 6.446754774533E-01 -3.403837291371E-01 -3.222088246803E+00 3.740122719301E+00 -2.506298485626E+00 -3.778431090494E+00 1.297821818322E+00 1.785318434384E+01
 -8.928818167300E+00 -1.394652827680E+00 3.163053490751E+00 -2.576455718755E+00 2.130543084884E-01 1.200579106698E+00 -6.792752386582E-01 -5.338654084475E-01 -3.754771621144E-01 -2.011420772310E+00 -1.745125232367E-01 5.987157548917E-03 4.361127349747E-01 -4.375519430033E-01 -3.844570709813E-02 -3.976943439274E-01 8.046847680474E-01 -2.664539542087E-01 2.342635593807E+01
 -3.618768409777E+00 -2.492764821789E+00 1.236418994528E+00 -4.256810406580E-01 -2.737312170435E+00 -1.877489527510E-01 1.518190880666E+00 -3.164613439885E-01 9.341541474274E-01 6.745718560958E-01 -3.355660262574E-01 1.972413217358E+00 4.888335106675E-02 -4.265507471540E-01 -1.616164211624E-01 4.338143602906E-01 -6.852997317968E-01 2.325713078307E-02 6.709150211807E+00 1.818498991612E+01
 5.097389676655E+00 2.631580813813E+00 -1.489099795639E+00 3.431951813673E-01 1.608733375021E+00 -1.417905949594E+00 9.033450316644E-03 -2.009217918218E-01 1.250593789428E+00 -1.598257196217E+00 -1.969061106628E+00 -6.238229639721E+00 5.941142210474E-02 -1.999424035422E+00 -1.347031388563E+00 5.943695272930E-01 1.003667169770E+00 1.445831177435E-01 3.662004402364E+00 9.042428625064E+00 2.467464356041E+01
 6.593959483864E-01 1.165127755318E+00 -2.069414926491E+00 -4.809145327979E+00 -4.287726338805E-01 1.980054372356E+00 -1.046251037066E-01 2.266359134541E-01 -1.024579434349E+00 -1.951945053472E+00 5.788828526697E-01 8.344352708159E-01 -5.261473324339E+00 -8.318389588874E-01 -2.942025392520E+00 -1.195861419193E+00 -4.015515215791E+00 -9.707600809873E-01 -4.251152940651E-01 6.013869028418E-01 1.072901867606E+00 3.197624746621E+01
 1.713390283730E+00 -6.655630013580E-02 -3.019682554840E-01 -1.308210264019E+00 -9.379728181238E-01 2.990029510050E+00 -1.193418565103E+00 -4.887133801444E-01 -4.634363655541E-01 2.242039893875E+00 -6.990947789401E+00 1.297224053050E+00 -2.808062453357E-01 3.051951759159E-01 -4.158184558643E-01 -4.937913705608E+00 -5.869845769104E+00 -5.581570791460E-01 3.041336565865E+00 -6.382780204485E+00 -2.511981630102E+00 -7.546078133410E+00 2.565683189729E+01
 1.081902363884E+00 9.514664890175E-01 -9.076917359790E-02 3.550141816946E+00 1.019322560825E+00 -3.906256887237E+00 8.493638077027E-01 4.808114029218E-02 -3.016498036635E-01 -1.299420092854E+00 3.517427427857E+00 -1.607087206267E+00 -3.254177690380E+00 -1.013041144463E+00 -3.254572221713E+00 -1.870556875067E+00 -5.392304048511E-01 3.361340742739E-01 1.965931959050E+00 -4.955216449189E+00 -4.042957386996E+00 -3.241734033914E+00 2.713096751105E+00 1.473693489995E+01
 4.392446157027E-01 1.629353350128E+00 3.853521641112E+00 -1.537626972556E+00 -1.227151270968E+00 -1.401036288643E+00 -8.724498177924E-01 -1.157500162099E+00 7.551871287217E-01 -4.597848370691E+00 -7.628212012732E+00 5.522540564360E+00 2.251237954674E+00 3.842659711721E-01 -1.184928505636E+00 6.745218135740E-01 -5.053911147093E-01 -5.967359941673E-01 -9.682035082321E+00 -7.056007665245E+00 -9.516237178630E+00 -1.967481972457E+01 8.859405303736E+00 2.734765074426E+00 7.000364920478E+01
 2.556310674351E+00 2.236803303353E+00 -5.767172625553E-01 1.338847537864E+00 -6.074859465233E+00 5.069450229563E+00 -2.550669405044E-01 -5.392650103280E-01 -6.980862097929E-01 -9.140744728271E+00 -1.078879722068E+01 8.532157514049E+00 -5.294290388328E-01 -4.586232185526E+00 -5.174031042672E+00 -7.570261124175E-01 2.466479451569E+00 -5.842766935354E-01 -5.927803016853E+00 -5.930135122064E+00 -5.247564096665E+00 1.043097639225E+01 -2.408738994566E+00 -1.776400680279E+00 9.735687179840E+00 5.358119014683E+01
 8.170371920502E-01 -2.036112065339E+00 -5.912135436812E+00 -2.077185381027E+00 5.973365673139E+00 -3.603108483689E+00 1.233626483934E+00 1.033334001816E+00 4.024949683415E-01 6.810526083899E+00 1.016649901759E+01 -6.368802271066E+00 7.855683215783E-03 -3.368757867170E+00 -1.034437930072E+01 8.717518371162E-01 -2.615612486677E-01 -4.405865460306E-01 -9.945527445264E+00 -6.179902130254E+00 -1.010067958553E+01 1.599529669839E+00 -3.328929438063E+00 3.894013741368E-01 -2.230034273191E+00 -9.167257811659E-01 4.036574569338E+01
 2.611495117407E-02 6.505507626527E-01 2.253339835598E-02 -9.933632219801E-01 8.306639975357E-01 -8.266220948091E-02 -4.490658171398E-01 3.155007815790E-01 1.574144086897E-01 -1.309640825650E+01 -1.660296094110E+00 -1.851253287286E+00 -2.257488134274E+00 3.462212164594E+00 1.028614361569E+00 1.405969771945E+00 1.258042912134E+00 -8.169878809104E-01 8.472237941462E-01 -3.804850062295E-01 -2.135580531302E-01 2.103182436283E+00 7.394922202310E-02 -9.554335662336E-01 -2.606692757826E+00 2.465720795405E+00 -2.192112732673E+00 3.047020603818E+01
 -6.235355009330E-01 1.353796485745E+00 -1.687705538040E-01 6.937605013365E-01 -3.313626507908E-01 -7.032570461215E-01 7.723970974138E-01 -5.012151667102E-01 4.153827166296E-01 -3.159783799365E+00 -2.326292191825E+00 1.492281932548E-01 3.654201701814E+00 -7.128657588264E+00 -9.675926423028E-01 7.958518838338E-01 -2.857858338847E-01 4.372117347226E-01 3.445350356013E-01 7.195749407267E-01 1.123836707111E+00 -8.156397208613E-02 -5.024368783536E-01 -4.171821837918E-01 8.942506624891E-01 -2.285829604978E+00 1.763621247169E+00 4.887415171613E+00 2.589403877059E+01
 5.646937070757E-01 1.433598395293E+00 4.973590430992E-02 -5.620015651831E-01 -1.448887475012E-01 -1.626998851806E+00 -1.062091336871E+00 6.901787774577E-01 7.728632484505E-01 -1.648336880245E+00 -4.310689629654E-01 2.962079849608E-01 1.118224134927E-01 -1.413023667751E+00 -1.496313548602E+00 -7.273366493318E-01 3.727622104379E-01 8.461673170956E-01 9.323099070745E-01 1.000688280137E+00 2.553450422066E-01 1.523938024268E+00 -9.480663646934E-01 -3.232841839924E-02 -4.975763451505E+00 2.712997727274E+00 -5.532934547383E+00 1.268393759569E+00 2.309289931425E+00 2.645914194513E+01
 -1.270212281115E+00 2.905354028639E-01 -5.569424832288E-01 8.701743645138E-01 -7.457434215697E-01 1.822671016439E-01 5.329333312695E-01 -7.732810814331E-01 -3.198338437226E-01 -3.832184295933E-02 -2.923426516769E-01 9.507967344226E-01 -1.139376567229E+00 9.006715583624E-01 9.424996054863E-01 4.381876445924E-02 -1.174451835493E+00 -1.313427738060E-01 -1.476025115309E+00 8.558825891310E-01 -1.053313298480E+00 -1.534439103283E+00 -4.128180694089E-01 -1.362643154352E-01 8.692449393808E-01 5.479141577434E-01 -1.034250823452E+00 -7.997307371139E+00 3.418004499534E-01 3.777635264964E+00 3.026271701367E+01
 2.591931025650E-01 -4.528856398233E-01 7.528633659614E-03 -1.285647732339E+00 -7.692887935145E-01 -2.238797282042E-01 5.289179980925E-01 -4.282301685941E-01 -2.137237854646E-01 2.423427595043E-01 7.585396798963E-01 -2.900605398514E-02 -1.251733857973E+00 -7.264660057467E-01 -3.916321308146E-01 -1.272914323960E-01 -2.977512483423E-01 5.047837486879E-01 -1.883412754485E-02 4.532734389558E-01 5.676958113935E-01 -3.043748323076E-01 -1.110550205959E-01 -4.702068098109E-02 -1.614977292750E+00 -4.985234519198E-01 6.915467450510E-02 -1.902754979470E-01 -6.112600995076E-01 -1.373056932374E+00 -1.319989997731E+01 1.218253986145E+01
 3.557570578665E-01 9.590626566660E-01 3.753015703133E-02 2.968366538259E-01 3.719543324669E-02 -1.078175415214E+00 -7.456140201530E-01 5.713954323699E-02 -4.276205774531E+00 -7.446487054148E-01 -8.126183362264E-01 9.456567769169E-01 2.589229429054E-01 -1.677121103425E-01 4.639542292601E-01 1.064449630142E+00 -3.367839707005E-01 3.054161173564E-01 -7.897016661981E-01 4.190630982372E-01 -6.377260175055E-01 -4.069072822160E-01 -7.439064438720E-01 -2.232444474139E-01 1.579135224260E+00 6.403460738283E-01 -9.577057203037E-01 2.620304416812E+00 -1.038421452090E+00 -1.480555853841E+00 6.711993730038E+00 -3.731913770694E+00 1.457208863280E+01
 -9.553510776703E-02 2.706546028243E-02 6.149548548563E-01 -7.060968669014E-01 3.409190513430E-01 1.235845836902E+00 9.264663498035E-02 6.665500722734E-01 2.506077134790E-01 4.780554690703E-01 1.289769942003E+00 -1.137741125027E+00 -4.838104818886E-01 -1.158708897677E-01 -1.685793399586E-01 -2.252204829344E+00 -8.936461090902E-01 -5.186052180851E-01 -3.493289510092E-01 3.620366367370E-02 -1.238701987172E-02 3.090305704513E-01 -3.221343175451E-01 2.922677267590E-03 -7.122163883627E-02 9.284666274469E-01 2.256162087816E+00 -1.356197266212E+00 -1.424990409237E+00 -9.152758305741E-01 -4.925709479578E-01 1.061686922931E+00 -3.581019669767E-01 2.481663951345E+01
 4.605171953520E-01 8.963689569906E-01 2.405634463506E-01 2.541858667994E-01 1.913584641989E-01 9.176048084469E-01 -1.797193647217E-01 -1.026114467195E+00 6.126751372713E-01 6.688498847969E-01 -3.164415957517E-01 -7.390819100261E-01 -2.239748229593E-01 1.220631678637E+00 -5.432385502713E-01 -2.385771907523E-01 -7.119209809693E-01 -6.093356423663E-01 6.531710555518E-01 -1.229757565385E+00 5.838353259080E-02 6.952169576530E-01 5.678001837360E-01 3.851951406852E-01 1.599902605897E+00 5.872151484287E-01 8.711835307036E-01 -1.856090703519E+00 -9.411646792503E-01 8.691064219546E-03 -1.406029155389E-01 1.110362693348E+00 -1.818697006491E-01 1.092378976507E+01 1.611077137735E+01
 -3.818704235271E+00 -1.063234166899E+00 3.462857545912E-01 -1.202596974263E+00 1.609103242995E+00 1.503584613918E-02 1.154754646172E+00 1.601087378475E+00 1.283604466737E+00 8.811219668375E-01 2.384919579895E-01 -3.840546054808E-01 1.246135803142E+00 1.367664722548E-02 1.661979457596E+00 4.491305796818E-02 3.827942060925E-01 -6.183627949682E-01 -9.137922859357E-01 8.041228349917E-02 -8.008545865267E-01 1.809257747178E+00 -3.843704339253E-01 -1.971836708164E+00 -2.720078194192E+00 -1.191470579441E+00 -3.916996945437E-01 7.401444702892E-01 -9.580847693418E-01 -6.952395306576E-01 4.470681467337E-01 -5.154600093274E-01 -6.849457940062E-01 1.831420255586E+00 -2.790064716131E+00 2.465072563739E+01
 -2.893150299368E-03 3.592795497086E-01 -4.755810025024E-01 -5.943203283828E+00 1.176781330691E+00 -8.423789131711E+00 -6.251176357093E-01 4.295332211674E-01 -2.852473017727E+00 -9.556966853339E-02 -1.486072450048E+00 -1.645173379857E+00 -1.753477943897E+00 -1.308578235256E+00 4.147738632495E+00 -1.101936417388E+01 1.234418771062E+01 5.989177066800E+00 6.463317317083E-01 -1.700891498977E+00 1.947169266406E+00 1.335064776346E+00 1.290202951455E+00 -8.076309854340E-01 -3.683726462511E+00 -8.242458599759E+00 -2.652199210233E+00 -1.183570640876E-02 -4.533776803569E-01 1.849137790241E+00 9.332037422108E-01 2.891535286503E-01 9.787656382672E-01 -1.141801401893E+01 -1.554352538745E+00 2.293849652545E+00 4.913558489458E+01
 1.750146739509E+00 1.359045119553E+00 1.010323013544E+00 3.311796028861E-01 -8.381894518789E-01 -3.347854176235E+00 -5.756404900815E-01 4.246219075808E-03 -1.858718984416E-01 5.782019178862E-01 2.306990096851E-01 -1.097895358043E+00 -2.920167968496E+00 3.622621704432E-01 5.758810317452E+00 7.973938139402E+00 -6.008689700626E+00 -1.177661084275E+00 -9.103850301302E-01 -1.265100100060E+00 1.550040427336E-01 1.885409106298E+00 -3.359334132796E-01 4.408263792277E-01 -1.110621528483E+01 -1.486793795241E+01 -1.017738332066E+00 7.478453197228E-02 1.995895143573E+00 -2.964179955623E-01 3.545760383425E-01 3.473058085427E-01 1.320045638659E-01 3.980167565896E-01 -7.525538495951E-02 2.357279575788E-01 -5.342467891559E+00 6.500589702305E+01
 1.239521111917E+00 1.593587298338E+00 9.019823285463E-01 -7.575303736710E+00 1.210837765470E+00 -1.116393932042E+01 -1.298406063821E+00 -5.074262764299E-01 9.120431039673E-01 -3.048731707963E-01 -4.742406305689E-01 -4.267954660822E-01 4.438552189439E+00 6.836194234757E-01 -8.030719030812E+00 5.404539150161E+00 -2.286541328117E+00 -1.206148724164E+00 -4.884525889782E-01 -2.986736624936E-01 1.015183413025E+00 8.983505601336E-01 -3.485838643618E-01 -1.473057032325E-01 -2.531036630602E-01 1.114275620198E+00 -9.330508146628E-02 9.459733622707E-01 2.609397010691E-01 1.315156519227E+00 -1.688791606024E+00 8.040750338186E-01 -2.030219015091E-01 2.135800976535E+00 9.651511029941E-01 8.337552707776E-03 -2.830035987838E+00 5.421300802893E+00 4.786934293702E+01
 1.430532784701E-01 5.147265041271E-01 -1.738217223054E+00 5.367437397059E-01 1.207069189044E+00 6.847425346283E-01 -6.063475732147E-01 1.198186502348E-01 -6.085814229361E-01 -2.091309769736E-01 1.063510832627E-01 -7.925260258122E-01 8.912000848550E-02 5.203721048901E-01 6.643876653602E-01 4.990984141132E-01 1.059974373487E+00 -2.221397374476E-01 2.160914726764E-01 -1.711865414077E-01 4.757040536410E-01 -4.975413895554E-01 7.599926454154E-01 1.501988721145E-01 -4.280252790144E+00 3.776281185725E+00 1.561081179487E+00 1.041039986537E+00 -6.695442707285E-01 -7.882514618627E-01 -1.355519805137E-01 1.407544730089E-01 2.237455317216E-02 -2.879370696515E-01 -2.032603095005E+00 4.014205365526E-01 2.897159715756E-01 -1.253407389850E-01 -5.292924223956E-02 6.155419709967E+00
 -1.588484121613E+00 -6.200178410816E+00 8.070156651664E+00 4.565421332434E-01 -8.566156958855E-01 -4.509301740428E-01 8.399105299482E-01 2.406507541878E-01 2.529227137382E-01 1.146455891837E+00 7.717511789557E-01 3.852152343172E-01 -1.882982035221E-01 1.666924071806E+00 -2.177507933524E-01 -2.514113570233E+00 -1.404454501411E-01 -8.768041256623E-02 -1.166016603887E-02 -5.018963943726E-01 -2.164139029161E+00 -3.760335258477E-01 5.196107797937E-01 7.601799807182E-01 6.521767973017E+00 -8.953254678489E+00 -1.640444914266E+00 -1.266646529599E+00 -3.189554877058E+00 -4.121751300304E+00 8.303696886881E-02 2.180784142670E-01 5.489681225564E-01 -1.438058373484E-01 -1.365858712434E+00 5.640846194165E-01 -1.157680296208E-01 -4.791128488995E-01 -1.559619187725E+00 -7.899525477306E-01 3.441979718652E+01
 -3.065504789231E+00 6.847241968581E+00 -6.797697865904E+00 4.348878836411E-01 1.609937247065E+00 2.630569780228E-01 -9.225901692597E-01 5.872907536669E-01 -2.693171378359E-01 2.731525571159E-01 3.207408577029E-01 -1.448026029297E+00 1.759751673282E-01 -5.355607245367E-01 7.709033635060E-01 -2.528960603011E-01 2.853785303943E-01 -1.080134973644E+00 -5.941736239363E-01 -2.274745536975E-01 -8.202230579154E-01 1.353325812865E+00 -3.898962426716E-01 2.266772413310E-01 9.805968988168E-01 -2.709010740548E+00 -1.093540967089E+00 -1.145616686087E+00 -6.612607468968E+00 -1.225534270781E+01 4.595065774633E-01 3.847316433079E-01 -2.892519775231E-01 -3.405996634119E-01 -1.160276928737E+00 1.804656871261E+00 1.007738322617E+00 -1.093726063859E+00 -1.208343827109E-01 1.840731098042E+00 5.415789691948E-01 2.455358842204E+01
 -3.204321979145E+00 -2.959901050672E+00 -4.499617984306E+00 9.157341379418E-01 3.514790617405E-01 9.113731866022E-01 -9.043252848629E+00 5.161292993740E+00 1.418087923721E+01 1.084976069973E+00 1.200901489593E+00 -1.375956305473E+00 -1.093747753220E+00 -1.873182241231E+00 -1.831745844150E+00 -1.704462322540E+00 1.309271431766E+00 -4.348886276682E-01 1.159581327052E+00 2.997514093991E+00 3.575511720864E+00 -1.040732522614E+00 -1.861988658457E-01 1.544557700381E-01 -2.712412334339E+01 -5.464260813343E+00 4.252847490069E+00 -3.358499715697E-01 5.386244371943E-02 2.644188144505E+00 -1.652167025237E+01 9.193432945386E+00 -1.152228651219E+01 -4.326094270328E+00 -8.085077921276E+00 6.176222912965E-01 -7.169264644179E+00 9.347653743852E+00 3.588216782582E+00 -4.759787340530E-01 -2.916368808678E+00 -1.044356261545E+00 6.829804909953E+01
 -1.513446642503E+00 -2.021116551450E+00 -1.791209093618E+00 -1.110568661062E+00 5.919598910917E-01 -8.401285720509E-01 6.898355674950E+00 -2.417482753086E+00 -5.319417693786E+00 -3.559398907800E+00 -1.372028059771E+00 2.481889014916E+00 6.685684002980E-01 -2.011216451090E+00 -2.172034745874E+00 2.902421978711E+00 -1.140107177792E+00 1.094519224912E+00 -1.909090215601E+00 2.411741201389E+00 2.145089863325E-02 -4.974634083010E-01 -1.820069777931E+00 4.600880086097E-01 1.910041125750E-01 3.419495146754E-01 5.297546271335E-01 4.083849808391E-01 1.128164151635E+00 3.712138762439E+00 1.096922023103E+01 -7.103201044919E+00 5.516757409677E+00 -9.192862437964E+00 -1.112493714527E+01 -1.860431478333E+00 9.837466613596E+00 -1.817623068475E+01 -7.002322279083E+00 -3.290719859985E+00 -1.609322948019E+01 -2.098935733587E+00 -9.676557311319E+00 6.417891802607E+01
 -2.048965655524E+00 -4.365626760605E+00 -6.988520239907E+00 5.205528369731E-01 -5.022146766745E-01 2.546687888943E+00 1.067073638998E+01 -5.269683540450E+00 -1.626297241963E+01 -1.132160163345E+00 -2.008631289470E+00 3.779340358903E-01 -8.737416391936E-01 9.511729096440E-01 2.410727031026E+00 8.386097504210E-02 1.013053558864E+00 -6.325026994071E-01 5.605469623297E-01 -3.078342806795E+00 9.609755280044E-02 -1.818056449231E-01 2.423643502817E+00 -3.548848286718E-01 3.144176102728E+00 2.331461465387E+00 5.112803437971E-01 2.570984498115E+00 5.271882517794E+00 -6.372462349915E+00 -1.244917341191E+01 6.492309682539E+00 -6.801296425884E+00 -1.404694268250E+00 -1.310980094632E+00 -1.490644251338E+00 4.578710667973E+00 -5.449475214065E+00 9.208058996583E-02 6.414892555633E-02 -2.654961935698E+00 -9.930297497239E-01 -3.418334598996E+00 4.581009512594E+00 4.997709648913E+01
 -1.041710657286E+00 -1.235111562246E-01 3.578516350461E-01 -4.864543128376E-01 -1.928524497424E+00 -3.585560547522E-01 -3.754624077777E-01 3.397609438152E-01 7.292309985213E-01 8.103836027323E-01 1.390539203738E+00 3.706307851297E-01 -1.030543883882E+01 4.637231175179E-01 9.273479406343E-01 -1.769736280037E-01 -1.723913298216E+00 8.629747469030E-01 -4.241243433006E-01 7.333532582885E-01 -9.240814939531E-01 -3.524187624700E-01 -5.426578726675E-01 -4.859278665735E-01 9.832068797059E-01 8.607000646724E-01 -4.746042799628E-01 -4.212065124027E+00 -7.153576700374E+00 -1.821361007962E+00 -2.727770029934E+00 4.170043496140E+00 2.187215347728E+00 -7.043593804072E-01 -8.724334931652E-01 4.559047006109E+00 -4.351742789721E+00 1.883704511708E+00 -3.114111820771E+00 -2.262723873620E-01 -8.536646646579E-02 1.249307995526E+00 -9.393300593255E-01 -3.131597892192E+00 -2.207176165608E+00 2.331698631093E+01
 -1.005099419195E+00 -1.016543075158E+00 -3.982900615903E-01 -1.063553438425E+00 -5.952516613383E-01 -3.209960407376E-01 -1.570350942508E+00 1.410511730007E+00 -1.083530037113E+00 1.837769714390E+00 7.569304526683E-01 -2.145703432878E+00 1.789549698210E+00 3.700953695034E-01 2.156227838474E-01 5.076355451502E-01 5.449818736908E-01 5.899725903258E-01 2.095213547756E-01 -7.682230662578E-01 2.128204042399E-01 -6.545257957392E-01 3.740090854206E-01 -1.347466699442E+00 7.718243856023E-01 5.178712226472E-01 7.031315303792E-01 -8.222305629319E+00 -1.173028696565E+01 -1.105720525828E+00 2.178038670783E+00 -4.178600655023E+00 -1.209534428414E+00 9.959079477574E-02 -1.490662368933E+00 5.575775199306E+00 2.546665997840E+00 -1.059262648267E+00 2.224153324425E+00 -8.482968394206E-01 1.189332158728E+00 6.755037352862E-01 -2.213227234755E-01 -5.023006691288E+00 -4.861627618358E+00 1.564169566939E+00 3.222057275754E+01
 2.009179377456E+00 2.442567530542E+00 -8.622766952847E-01 2.151999141851E-01 -1.134010906142E+00 5.747963537612E-01 -1.238678964640E+00 -1.549910432954E-01 -8.721404145970E-01 6.942413055713E-01 1.064799957998E+00 -2.691574155257E-01 6.206515075415E-01 7.595933336047E-01 -7.774897032763E-01 -2.537970627731E-01 -1.158563228466E+00 7.509311592613E-01 4.174839104807E-01 -2.276175664208E-01 -3.473795082117E-01 -3.038285884881E-01 3.545361511870E-01 9.948032190468E-01 3.236317163634E+00 4.560361390463E-01 2.409273132415E+00 -1.707059143440E+00 -4.544240521396E-01 1.641615569822E-01 2.016291877484E+00 -1.402860974036E+00 -6.832023075752E-01 4.236029017618E+00 4.318259714354E+00 -1.149705285259E+01 -4.332552519606E+00 3.491067841258E+00 -5.222677424740E+00 -8.304532293755E-01 1.169499035800E+00 -7.793937531673E-01 -1.606649380197E+00 -5.642810769353E+00 -1.215451845226E+01 -2.949426395965E+00 4.479602411457E-01 2.899339758353E+01
 -6.865105168671E-02 -6.215016776482E-01 3.800031134092E-01 -4.613887688386E-01 -6.717721366985E-01 1.057393831413E-01 -4.736287863991E-01 9.156574244570E-01 -5.911261434927E-02 3.892906902096E-01 -3.408829641975E-01 1.691313440499E-01 -6.010130259869E-01 -8.399374068037E-01 -1.888470333563E+00 -6.913898192053E+00 -2.216174320092E+00 -4.183695480237E+00 1.845063355982E-01 -1.172763736046E+00 -1.389404415773E+00 1.824600931996E-01 2.988327735119E-01 -1.330760995609E-01 -1.678252553765E-01 4.432261522513E-01 -1.012269691387E-01 -1.287174055573E+00 1.225674262968E-01 -2.012402536665E-01 4.344286497108E-01 4.496141090737E-01 1.242963987482E-01 4.412515631037E-01 3.413372176715E-01 7.238981914183E-01 -1.572694155482E+00 -2.426128778401E+00 -1.719797673394E+00 -1.522014692221E+00 1.383662273017E+00 6.250061122811E-01 7.519694373999E-01 -9.836484181231E-01 1.526764448930E-01 -8.348881569918E-01 3.488540255991E+00 -3.853371184323E-01 1.300040325539E+01
 -4.204648598248E-01 4.101035611740E-01 1.411445156094E+00 -4.064076462032E-01 -1.081996754866E+00 9.770068858959E-01 -4.159290137469E-01 -1.715246071809E-01 8.921297731446E-01 -5.417078125860E-01 -2.588322540935E-01 9.072677957527E-01 -5.246867804547E-01 -1.348632763100E+00 -9.944091462543E-01 -1.969567953778E+00 -2.569701614782E+00 -8.233091567264E-01 9.622874833390E-01 1.899124613330E-02 -9.699744638073E-01 7.854958925877E-01 2.866123397384E-01 1.934498844487E-01 -1.282768842708E-02 -4.773991735896E-01 -7.319072840224E-01 9.028980647091E-01 1.835217278252E-01 4.690423300454E-01 8.228123236789E-01 -9.329815693408E-01 3.942918105075E-01 -1.437846060084E+00 -1.282656312930E+00 9.546817796259E-01 -5.108288943512E+00 -9.282757029879E+00 -1.107959828151E+01 -1.751760148496E-01 -4.990934390755E-01 -7.643357932360E-01 -7.357815816314E-01 2.913605090992E+00 -9.322277279000E-01 3.106974915606E+00 -1.057972081316E+01 -2.165491428515E+00 2.385864537797E+00 2.482062936020E+01
 4.667943107053E-01 7.049585627212E-01 4.221939608202E-01 1.471432269692E-03 -9.772479158831E-01 5.719441364121E-02 -1.410592867176E+00 4.013034916683E-01 -1.221384262057E-01 -2.278337267437E-01 -9.572613474238E-02 3.141650460632E-01 7.778641039023E-01 8.664965311329E-01 -1.793944847949E+00 -2.610272404743E+00 -5.111337212397E-01 -2.351868713336E+00 1.179560779835E+00 1.557194706654E-01 -5.922817158658E-01 -9.962124441549E-02 1.033027874060E-01 9.513425260289E-02 9.542910202905E-01 1.577470720766E+00 -1.482394496716E+00 -1.832948869705E-01 -6.713805840054E-01 3.841491898077E-01 7.311972692720E-01 -9.180238283168E-01 1.197649057997E+00 -1.176250249539E+00 -4.938669205009E-01 -8.097581208935E-01 -2.723256294937E+00 -8.854010390711E+00 -9.823030132153E+00 -3.297919959367E-01 1.094285575304E+00 -1.845024990879E-01 -3.291835423950E-01 4.411505994675E-01 5.788134404824E-01 4.418932912015E-01 7.958420940078E-01 -1.077424231140E+00 7.569420747682E+00 8.917648200959E+00 2.005843966545E+01
 2.195831026934E-01 -7.586452244266E-01 6.872661462797E-01 -8.058281564869E-01 -2.010623794518E+00 1.421724127281E+00 1.242776686472E+00 -2.047840975729E-01 7.981656610458E-01 -4.786756452589E-01 4.910752809882E-01 2.081129227211E+00 -8.723413073553E-01 -8.511172561502E-01 -9.670769838066E-01 -6.007855097612E+00 -4.251704548656E+00 4.280023018358E+00 -5.735856915726E-01 -3.534659798115E-01 -1.697604832288E+00 3.055120671981E-03 -1.293142706645E+00 1.724603006414E+00 -3.661259708961E-01 -2.412848411073E+00 1.450691304795E+00 -1.007435724623E+00 1.191720824251E+00 1.001529132590E+00 4.809516307684E-01 7.755909692260E-01 -3.186859181211E-01 3.025162351764E-02 4.327763853772E-01 -1.293748253800E+00 -4.013956985276E+00 -8.569129622886E-01 -3.184470127509E+00 -1.295611731662E+00 8.975756973596E-01 -2.065037675092E+00 1.294109858082E+00 2.841646524330E+00 -1.287465330293E+00 2.531999268696E-01 -2.309864690323E+00 7.449358595146E-01 -8.395150298374E-01 2.842477953799E+00 -2.166977536997E+00 1.463158837530E+01
 -8.495736592937E-01 1.511514491198E-01 -1.050154384817E+00 -2.608963173881E-01 -2.954583979983E+00 -5.926093100652E-02 2.738222966940E-01 3.233568343495E-01 6.217704579360E-01 -5.392409808717E-01 1.406154816300E-02 8.833902034265E-01 7.689686569380E-01 -1.010542408996E+00 -1.884879045303E-01 -1.362530559371E+00 -1.351324355801E+00 1.441212501363E+00 -4.926125131449E-01 9.743304681623E-01 -3.853153118642E-01 -3.628866760395E-01 -1.189942556493E+00 2.089672138630E-01 1.939951145581E+00 -6.476297270145E-01 3.393881867707E-02 6.230806973270E-02 5.344532454814E-01 -2.278960338773E+00 -1.432111303206E+00 1.140076987373E+00 1.584390773333E-01 -4.845037179658E-01 -3.846399732618E-03 -1.796267766539E-01 -2.978101210465E+00 -1.841149537934E+01 1.070966630828E+01 -3.229041871079E-01 -8.089376142883E-01 1.918332982210E+00 -8.056100894234E-01 1.275162531765E+00 -2.361592373927E-01 7.807296211028E-01 -1.169763945242E+00 -4.976058713935E-01 -3.738676274669E-01 4.599478570391E-01 -1.301702801603E+00 3.222369936801E+00 3.166007357363E+01
 -1.266514085608E+00 -9.026795693598E-01 5.814787927570E-01 -1.144827566912E+00 -2.267256078709E+00 -1.491965376805E-01 5.603865764869E-01 -3.751011591625E-01 5.537024028218E-02 1.078108383577E-01 5.237515430623E-01 -3.611790969117E-01 6.518383357541E-02 1.885432629758E+00 -6.877196961287E-01 1.470699272603E+00 6.873892428951E-01 -3.793158845258E+00 -3.495833710296E-01 -1.195648864225E+00 -6.126220939578E-01 -3.681583977196E-01 1.363279594741E+00 -5.617892010857E-01 1.633797195657E+00 -1.551290482826E+00 1.737470295032E+00 6.167073087175E-01 6.676541556951E-01 -1.247486070417E-01 5.210464978683E-01 2.073711964305E-01 -9.544172160120E-01 -1.190890974311E-02 4.828241155038E-01 -3.426417694409E-01 -5.446486988320E-01 8.537015663712E+00 -7.750113499934E+00 -1.320275506851E-01 6.428270555035E-01 -1.736414902583E+00 -1.587811053911E+00 -1.773108401019E-01 3.764606974826E-01 -9.401683960596E-02 2.676529790071E-01 -1.079872156005E-01 5.909763994253E-01 2.629514727139E+00 -5.270039741746E+00 -2.285798047954E+00 -6.972512139673E+00 2.102881025601E+01