#BIOSYM hessian 1
@Type: Hessian Update
@Units
 distance: 	A
 energy: 	Kcal/Mol
#header
@natom 19

#label
L1      L2      L3      L4      L5      L6      L7      L8      L9      L10     L11     L12     L13     L14     L15     L16     L17     L18     L19

#element
Li Li Li Li Li Li Li Li Li Li Li Li Li Li Li Li Li Li Li

#matrix
57
 2.606604115386E+01
 -2.126617559310E+00 1.024188882614E+01
 1.873562732532E+00 -3.290982304883E+00 9.334162990355E+00
 9.086488982204E-01 -1.027517923911E-01 -1.576487507349E+00 1.924187772404E+01
 2.894899582498E-01 2.948324505568E-01 -1.139203328161E+00 -1.290196969997E+00 1.275282492143E+01
 -3.171310625322E-01 4.843208503389E-01 2.375126004064E-01 -5.546803746865E+00 -4.722210032238E+00 3.007863643744E+01
 -1.567256421849E-01 3.803117150208E-01 -4.674680590705E-01 5.660886577480E-01 1.265919739469E+00 1.168018874634E+00 2.833880016449E+01
 -7.041908359425E-01 1.613658010816E-01 4.735396400903E-01 -4.138941209233E-01 1.331083638244E+00 6.619595283715E-01 3.368729805712E+00 3.538208044913E+01
 7.265240976416E-01 -5.900697903946E-01 1.361100706712E+00 -2.024882109218E-01 -1.219986912124E+00 -1.850106458422E+00 -4.975439485033E+00 -7.277862301175E+00 2.824597749819E+01
 6.867755082548E-01 -3.251289992719E-02 5.356057193088E-01 -5.703511781813E-01 -9.347110307282E-01 -1.548102753345E+00 1.208065793977E+00 1.090617636449E+00 -2.823957666461E-01 2.185350308598E+01
 1.616612016062E-01 -1.040219825411E-01 5.002745111701E-01 -3.341938954686E-01 6.517656642501E-01 -2.996927714276E-01 5.666583039589E-01 8.372976023681E-01 5.943470711963E-01 3.930252228489E+00 2.713623124004E+01
 -3.222956445798E-01 3.124966185149E-01 -2.656474863365E-01 5.141378697906E-01 1.921699687823E-01 -2.501872712399E-01 -3.896944871658E-01 -1.191381628529E+00 -4.364288969339E-01 -3.581546675209E+00 -7.729847221800E+00 2.443948126446E+01
 1.323878018909E-01 8.073766651043E-01 -1.616232006289E+00 3.563557154432E-01 4.591819059574E-01 2.038800126905E+00 -5.241133403219E-01 3.122936966114E+00 -1.939108359171E+00 -4.338985951704E+00 -3.130538104072E+00 -9.566789249782E-01 2.502906069681E+01
 -2.114245470507E-01 -2.827362657930E-01 5.031528375625E-01 1.384795835326E-03 -1.199329134578E+00 8.350204687912E-01 3.017102374075E+00 -7.926680430731E+00 3.721879358279E+00 -3.534017197041E+00 -2.902318057650E+00 -2.213929564016E+00 -4.060747938105E+00 2.020232369508E+01
 -1.766812810631E+00 1.126306746026E+00 -7.288084902548E-01 -9.070923082467E-02 1.210898850542E-01 7.396294664925E-01 -9.719327786056E-01 4.608499996681E+00 -3.861945096167E-01 -3.009955775210E-01 2.036718705993E-01 -1.998304012561E+00 7.583943583780E+00 -3.330452580566E-01 2.901700168065E+01
 -1.247509599272E+01 6.704148644422E+00 4.576488692811E+00 -7.295312394636E+00 -5.059751621495E+00 8.299631012929E+00 9.334261938774E-01 1.091320527334E-01 1.186918484162E+00 2.602074347540E-01 3.803939932764E-01 6.938895148973E-01 -2.945076009498E+00 1.320848180343E+00 1.677325703560E+00 3.699287334199E+01
 4.633614966796E+00 -1.419097030509E+00 -1.562611080411E+00 -3.719397813691E+00 -2.277216241495E+00 2.935801687165E+00 1.760129921637E+00 -5.362634833387E-01 -2.713063033495E-01 1.105722061412E+00 -5.566066388634E-01 1.461936815415E+00 5.068365805496E-01 -3.216683676794E-01 1.109248784359E+00 -9.651414350872E-01 4.088757972348E+01
 3.174444750083E+00 -7.226514947747E-01 -5.262904461500E-01 8.655110696892E+00 3.727662933365E+00 -1.397353181044E+01 -3.770161591901E+00 1.069297260397E+00 -4.687944582725E-01 8.478664918043E-01 -4.648236192184E-01 4.605474056541E-01 -3.605336310344E-01 -2.619116448259E+00 -1.657283550240E-01 -1.592686312066E+01 -1.390653342006E+01 3.477093784679E+01
 -1.871372668320E+00 2.083691290067E-01 -1.241739322988E+00 -1.398448312041E+00 5.354608486436E+00 -4.973331716701E+00 1.431037089379E+00 6.692472759650E-01 -2.613360813213E+00 -3.108501056230E-01 5.329783671087E-01 1.902250275418E-01 2.955966577016E+00 -1.832665395472E+00 1.144696924969E+00 -8.718406332619E+00 1.215204741296E+00 -5.839841597748E-01 3.082786345255E+01
 6.440333583247E-01 2.989035749681E-01 9.718781560969E-01 4.815689789559E-01 -3.479832975090E+00 6.761533785578E+00 -2.625597623966E+00 -6.016151330599E-01 1.217312351941E+00 2.209683746732E-01 1.568735348395E-01 1.117959618980E+00 -2.330568325141E+00 1.424656755176E+00 -8.468655236035E-01 3.953824036353E+00 -1.066265205367E+00 -2.039079318804E-01 5.168104449981E+00 3.715083719365E+01
 1.678734122693E-01 1.236334389414E+00 1.413191260246E-01 -3.062414315603E+00 4.207829447392E+00 -3.943171634349E+00 -9.510952676512E-01 7.137418546479E-01 1.126838716480E+00 1.458765785820E+00 -8.864798227626E-01 -2.432789761988E-01 2.406389225812E-02 -1.354048042196E+00 -2.263379246249E+00 9.607482637767E-01 1.065618676077E+00 -8.502106660236E-01 -4.954779426143E-01 -8.628716036398E+00 2.729773838647E+01
 5.871377823049E-01 1.028932902198E+00 -7.384013364660E-01 4.548283039234E-01 1.276381778963E+00 -1.858502960766E+00 2.129505277152E+00 -5.738355067409E-01 1.109022709095E+00 -5.692592180478E+00 4.373112408851E-01 4.036899265785E+00 -1.681667804290E+00 1.093299867592E+00 -4.778933310326E-01 -4.458976081914E-01 7.010227149799E-01 -6.651645936547E-01 -5.142398718107E-01 6.868293945768E-01 -1.229101457689E+00 2.143082415574E+01
 -3.074258547053E-01 -2.007061191936E-01 4.272389639454E-01 4.417647815400E-02 1.088331890997E-01 9.914679261194E-01 6.986604966958E-01 1.334515597817E+00 -1.547317732500E+00 -9.764895719478E-01 -4.697357476093E-01 2.005934364311E-01 1.564493414028E+00 -5.219996295148E+00 -3.387597489013E+00 -8.676467782477E-01 1.427219053108E+00 5.199534100139E-02 1.971369560395E+00 -4.365944282487E+00 4.382713372859E+00 -5.202931829202E+00 2.826261931051E+01
 1.198363319245E+00 3.937658071607E-01 1.256051568391E-01 -3.569741374572E-01 1.196325822703E+00 -6.620455712822E-01 1.771197346702E+00 1.114251682899E+00 -1.243739298039E-01 4.880146229042E+00 -6.162268667900E-01 -3.441772417905E+00 1.166358192973E+00 -4.295251733269E+00 -5.748390654149E+00 -1.320628972125E+00 -3.054543696760E-01 1.630102308328E+00 -2.980838492792E+00 4.087898867306E+00 -6.533475583445E+00 8.287605430049E-01 4.144516785755E-01 2.057080054457E+01
 1.861872824783E+00 -2.472263895629E+00 2.512713693597E+00 -8.734936872286E-01 -4.320800480121E-01 -2.707449797887E+00 -2.736047977286E+00 1.402064768026E+00 -1.381217962358E+00 2.283139983529E+00 1.486862693282E+00 -1.667108407976E+00 -2.537281817415E+00 1.864800150558E+00 -1.694205549342E+00 -6.824549664782E+00 -1.980015776578E+00 3.687566548650E+00 -3.186554302023E+00 4.826055613038E+00 1.090704061754E+00 3.620544312269E-01 -1.439349451409E-01 -1.257066817936E-01 4.958033152134E+01
 -1.240523291692E+00 -5.761012076556E-01 -1.637197473602E+00 -4.570945873148E-01 -1.479089769886E+00 -6.890273888165E+00 -6.691808793308E-01 -8.645413396500E-01 -1.490279718490E+00 -5.465511653033E-02 -6.812821768824E-01 4.411011304195E-01 1.396583281188E+00 -1.500123889239E+00 8.816378819969E-01 -7.678127094449E+00 -5.561461325165E+00 4.880185452167E-01 3.492966056692E+00 -1.203561311488E+01 -1.532162522909E+00 -1.677590560794E+00 1.118376511708E+00 -2.618526066578E-01 -2.764605729610E+00 4.532572474489E+01
 -2.035361487355E+00 9.824569561346E-01 -1.406144581281E+00 -4.979240770650E-01 -3.663024134252E-01 -1.317255499559E+01 2.835461631010E-01 -2.933229704499E+00 -9.872187444888E+00 4.025678217181E-01 -8.170270873073E-01 -8.229183464394E-01 -6.308263132136E-01 1.903681663052E+00 -5.014730723448E-01 7.816567737300E-01 -4.906725369149E-01 2.864264395925E-01 3.100534904564E+00 -4.474247386763E+00 -9.038767332165E-02 8.243776222221E-01 -2.615347056186E+00 -1.834017661660E+00 -3.301402432352E+00 8.491178835881E+00 4.301237895682E+01
 1.877800325088E-01 2.489165161193E-01 1.921961049326E+00 -1.117138238313E+00 -1.296040889457E+00 -1.259189295026E+00 -8.099008224290E+00 -3.918642401017E+00 3.016835029210E+00 -9.196494641479E-01 -6.586907853751E-03 -1.123880944786E-02 -7.819099963721E+00 1.729786129213E+00 1.057993889106E-01 7.163341473985E-01 -1.267304352338E+00 1.087454118778E+00 -2.165700634841E+00 1.466484561761E-01 4.547501426465E-01 -7.546799431343E-01 -6.834465676209E-01 -5.138970827138E-01 1.699219278830E+00 2.218404015683E-01 -1.202441101324E+00 1.901920499166E+01
 -1.964453891109E-01 -3.923164653353E-01 3.729651689158E-01 1.097426684107E+00 -1.920139740764E+00 1.854859854721E-02 -4.793910270607E+00 -3.743011415413E+00 2.931706799269E+00 -9.852230760103E-01 -9.528485346407E+00 -6.835977348257E-01 3.055232169021E+00 -1.599261912828E+00 5.907538525204E-01 5.034648664470E-01 -4.853875054471E-01 -1.395118747177E+00 -2.411041935378E-01 2.310261111719E-01 4.452097173670E-01 8.423695384118E-03 -9.546581166971E-01 -2.788788633820E+00 -2.132539520764E+00 -1.344233483084E+00 3.576807109528E+00 1.631546652160E+00 1.959238864644E+01
 3.071941945637E+00 -8.059186465771E-01 7.780455745469E-01 9.621277855865E-01 -1.076664331645E-01 1.091950710062E+00 2.641567254466E+00 2.469733395394E+00 -2.713306867281E+00 -1.159553256294E-01 -2.059674869916E+00 1.079579933363E+00 -1.562030159888E+00 5.691066531207E-01 -2.320216940111E-02 -2.262225389381E+00 -3.077535724618E-01 9.107305131704E-01 -3.125041524424E-01 -6.883806294830E-01 -1.986402823832E+00 8.207719689296E-01 -1.158978682787E+00 -6.933348441274E-01 1.221961341748E+00 1.075404251343E+00 7.705247507371E-01 -1.660345332433E+00 1.695618729046E+00 2.792919868098E+01
 -1.615470110385E+00 3.536552773187E+00 -4.283588885261E+00 5.990003804607E-01 1.332143680181E+00 1.078533830483E+00 6.360036662211E-01 -1.026992220952E+00 1.834655964170E+00 -2.986340329129E+00 2.446135780729E+00 -2.409694467041E+00 -4.318982476298E-01 -8.000534848161E-02 1.094908868545E+00 -4.538413716127E+00 -2.782482717926E+00 7.593041689076E+00 1.985037716113E+00 -8.152323039678E-02 -2.173052616201E+00 -4.946514030043E-01 3.930597037462E-01 1.529959370975E-01 -5.119192437091E-01 -9.158277519662E-02 -6.834184839833E-02 -1.539125582062E+00 -2.146234750303E+00 -3.772196765528E+00 2.836474636505E+01
 3.937058551113E+00 -5.661803406181E+00 4.387875317863E+00 -2.817993259624E-01 -2.862182580787E-01 -1.783951618477E+00 -1.690535106550E+00 -1.328636231198E+00 5.183932210766E-01 3.879369117605E+00 -8.285285174000E-01 3.996442393654E-01 -8.014473165309E-01 3.454178372056E-02 1.597801903001E-02 -2.339519073163E+00 -1.939948533816E+00 5.912341078355E+00 -1.064642674026E+00 6.974451706683E-01 -4.835923237977E-01 3.545364487601E-01 1.376923783845E+00 9.850037876323E-01 1.743523033233E+00 6.233128498928E-01 -1.615532747790E+00 -7.115253423985E-01 -2.966503906037E+00 -2.566391156099E+00 7.025937500358E-01 2.830620584393E+01
 -3.426279406602E+00 3.455730515962E+00 -4.858490014684E+00 9.836610397036E-02 1.563994458172E+00 -5.297738758840E-01 2.709316713870E-01 -1.203742445273E+00 1.816674203856E+00 -4.882563360082E+00 1.302672872221E+00 -3.278876089133E+00 2.223221487302E-01 1.638371658141E+00 5.750125915167E-01 5.830577766526E+00 5.081294804504E+00 -1.190507222999E+01 8.549482973362E-01 3.114240846408E-01 -7.577677379780E-01 1.229930943022E+00 -5.478268336568E-01 -3.753622065906E-04 -5.447321327433E-01 -1.362447288092E+00 1.470534971796E+00 -5.128105200854E+00 -3.181038949145E+00 -5.947443942249E+00 -6.273846985578E-01 -5.989232896400E+00 2.716247048696E+01
 -8.872088262005E+00 -4.117604099069E+00 -6.594314633045E+00 1.896920774000E+00 5.755069124418E-01 1.274748672339E+00 -3.432895032550E+00 -1.958826661250E+00 -1.907315665256E+00 7.490212394826E-01 -6.235169379407E-01 4.740941818627E-01 -8.419629269506E-01 3.682244427429E-01 5.812521714240E-01 9.461822859561E-01 -9.279679318035E-01 -1.934592155972E-01 2.246573165997E+00 -5.627576315930E-01 -1.515497293221E+00 -1.376647584254E+00 -1.582767600950E+00 -1.640045227986E+00 -6.782345927461E+00 1.966185753584E+00 5.088510781453E+00 -7.103118533620E-01 1.669729191173E-01 -2.220151553717E+00 -2.218922998243E+00 -5.031015028254E+00 2.164669388393E+00 2.958142641689E+01
 -5.199808371938E+00 7.858602485948E-02 -2.053952622728E+00 -2.575254025020E-01 4.926522363744E-01 1.741542130624E+00 2.460249200190E+00 6.332822957821E-01 1.363868201972E+00 2.127817336985E+00 8.625160556828E-02 -1.830992553570E-01 4.861482161272E-01 6.310821967135E-03 1.008149730702E-01 3.836713908347E-01 -5.308655730454E+00 -4.431245482335E+00 -5.276423701703E-01 -3.783026751730E+00 8.193443749530E-01 7.249599405626E-01 -1.941496529294E+00 -1.121250401318E+00 3.115545472301E-01 1.522519069749E+00 -1.706016625360E+00 -1.469625665906E+00 -7.735729343451E-01 2.724595202039E+00 -4.512781893180E+00 -1.458484539436E+01 3.011083119098E+00 1.140545477926E+01 3.854227923080E+01
 -4.677352913673E+00 -8.009138243842E-01 -2.029259686048E+00 3.701494736924E-01 -8.746273859817E-01 6.337155005256E-01 -5.615654593666E-01 1.100352300365E+00 -3.862857671748E+00 -1.337762655092E+00 1.721121967475E+00 -3.725413895132E-01 -1.360967737668E+00 6.208865892201E-03 -5.589888455229E-01 2.986168787668E+00 -5.139523216471E-01 -6.496897632446E+00 1.484741737903E+00 1.141452401563E+00 -5.767370830338E-01 4.056016904202E-02 9.240332273997E-01 -5.965834927060E-01 -1.891033205326E+00 7.289615136116E-01 -1.300123896624E+00 -2.301371630773E+00 2.420441412137E+00 -1.217378860995E+01 1.455021196597E+00 1.348369470593E+00 1.673518817266E-01 6.051972374844E+00 -6.365838164440E+00 3.364038148023E+01
 -2.906305020117E-01 -1.616976232223E+00 2.953267572552E-01 -6.529973432089E-01 -1.007952604271E+00 5.683172316793E-01 -1.007435925664E+00 4.132248807085E-01 4.781457060531E-01 -1.166611686741E+00 -7.057983579654E-01 -1.435716969734E-01 1.633481557125E-01 -1.026630782094E+00 -4.655230848336E-01 8.293281443568E-01 1.930253035946E+00 -1.372889260910E+00 -8.239511105818E+00 -4.174611994593E+00 2.670467635457E+00 -6.306186697158E+00 -5.181196695564E-01 -1.855365842555E+00 -1.445868470654E-01 -5.586684814738E-01 -1.502653266111E+00 1.081511734071E+00 1.893160939833E-01 3.026981037607E-01 -3.923520723078E+00 3.792489572206E+00 1.989587497035E+00 3.330554329293E-01 2.145622844660E+00 3.412026266363E-01 2.003215787669E+01
 -1.508590327125E+00 8.292364284231E-01 -7.060475368955E-01 1.771565018284E+00 3.714130395939E-02 2.122677420933E+00 8.224177827213E-01 -7.280250314301E-02 2.150727439592E+00 -2.293371856747E-03 -1.243357926547E+00 -3.018048377938E-01 1.299221119335E+00 -5.568310178789E-01 -1.279736389268E+00 1.128930006190E+00 -1.350244736301E+01 3.975185464854E+00 -3.895733123976E+00 -4.226426725781E+00 3.000920308102E+00 -1.741927757121E+00 5.239962140261E-01 7.079800470768E-01 3.586365120175E-01 -2.357811352516E-01 -1.321007382291E+00 5.373556719009E-01 1.277396857340E+00 8.292608758550E-01 2.137310751740E+00 -2.096080639824E+00 -2.598177344157E+00 -1.230756635896E+00 2.848597425507E-01 -9.981050124303E-01 3.463314135063E+00 2.859504611507E+01
 3.079955579435E-01 -2.657296742855E-01 -1.177656719870E+00 -7.182882719051E-02 -1.066403229032E-01 8.061783491275E-01 -8.296420396635E-02 -1.483319303172E+00 -1.898224265500E-01 -5.640197870565E-01 -7.007788313032E-01 -8.051660041821E+00 -1.268886092512E+00 -9.641752919852E-01 -8.622712033770E-01 -1.258395256395E+00 5.114234086108E+00 -2.253469167938E+00 4.040863485216E+00 4.091850948873E+00 -2.731499900254E+00 -3.545118465166E+00 5.647759825202E-02 -1.865935911076E+00 3.209801534773E-01 3.369398031495E+00 -1.627284755940E-01 1.885589025480E-01 -1.280059671654E+00 -1.743325203835E+00 2.643482083575E+00 -2.250439126836E+00 -7.673172932602E-01 2.039487111408E-01 -3.190014319120E+00 1.483944291500E+00 -1.372782683534E-01 1.454325981443E+00 2.285269582450E+01
 8.222619573134E-01 4.268012770332E-01 1.390995389699E+00 -3.350885720243E-01 -4.400316527863E-01 1.435962612487E+00 -4.360607039761E+00 -2.883303808871E+00 -3.365209879088E+00 -6.967823026142E+00 -4.347185136743E+00 5.060729513804E+00 -7.216846974336E+00 8.245912014471E-01 -8.818357898107E+00 1.408178580053E+00 -1.055111917822E-01 -2.415722415878E+00 -2.574103856011E+00 -1.230308946909E+00 6.066714142749E+00 -5.025722837878E+00 5.862653268488E+00 -2.410495362395E+00 -2.969986798185E+00 8.094469729164E-01 2.526301397629E+00 -6.371874937593E-01 2.841586062393E+00 5.468169416182E+00 -1.363089385598E+01 -2.144154280987E+00 9.269633385610E-01 -3.859397612617E+00 1.414748644143E+00 -1.151133713739E+00 1.682342408405E-01 -6.414407826569E-01 -2.925680608613E+00 5.270702150818E+01
 7.427101263526E-01 1.607099427182E-01 -1.487826649685E+00 2.302940075366E-01 1.130560322628E+00 -1.674785451193E+00 -3.680683459393E+00 -9.748450659152E+00 -4.324287879087E+00 -4.730073302729E+00 -9.455991856179E+00 9.574156650436E+00 -8.862004569322E-01 -9.150577662804E-01 -2.158954670240E+00 -8.315045442665E-01 9.986018485866E-01 3.456173250277E+00 2.033407899142E+00 -8.915367143007E-01 -2.326894792989E+00 7.005983895174E+00 -9.190110040644E+00 -4.340333031757E-01 -5.982549379904E+00 -6.206378396481E+00 5.501213650948E+00 2.257467136762E+00 -6.903372609350E-01 -4.330637848783E+00 1.114405896925E+00 -1.851738636605E-01 7.634239799959E-01 7.204125640085E+00 -3.583001130652E+00 1.921590186206E+00 -2.402168691037E+00 -1.065330311497E+01 -5.888314535076E+00 3.264026773500E+00 5.131284907061E+01
 8.419159279021E-02 -1.146221808758E+00 1.294310646771E-02 -9.687828614302E-01 1.457340187933E+00 4.427013634629E-02 -2.199165848654E-01 -4.371664182209E+00 -1.818753570594E+00 4.201250245986E+00 9.760415916890E+00 -7.535924888168E+00 -7.644937432535E+00 1.676452042205E+00 -9.817856461127E+00 -2.827927292536E+00 2.427985118404E-01 -3.577078789698E+00 3.757253902071E+00 -2.238871937254E-01 -3.734306670820E+00 -7.566557940980E-01 7.445452760314E-01 -1.902711080526E-01 3.062398505689E+00 3.070334104187E+00 -4.087981132993E+00 4.491722501291E+00 -2.298820752875E+00 -7.651841894483E+00 6.551319835936E-01 3.097703822995E-01 8.789064561182E-01 9.022160448181E-01 1.924178610701E+00 3.414488364687E+00 -2.176373267386E+00 -7.802053665517E+00 -3.140800906282E+00 -2.058334623179E+00 -2.087113317358E+00 3.738901155502E+01
 -8.531126352805E-01 4.546427333432E-01 -5.539129169130E-01 -8.103289633024E-01 3.882646562523E-01 -6.136944618690E-02 -2.677131057920E+00 2.649250793074E+00 3.628873871551E+00 -1.196589586071E+00 8.387900198083E-01 -1.362164078405E+00 -7.354323165305E-01 -1.741331061244E+00 2.202258154659E+00 -1.241112644717E-01 -5.787128312693E-02 -6.675246629193E-01 -5.033511407782E+00 -1.604386927233E+00 -3.282481670008E+00 -3.519434994974E-02 -1.779051147212E+00 8.229969972602E-01 -3.857153979550E+00 2.736343189246E+00 -4.633382325071E+00 1.333180865498E-01 8.024843054013E-01 -4.271246353769E-01 5.409992852350E-01 -2.710745861507E-01 1.105573693319E+00 -6.624483470792E-01 -7.865330016095E-02 5.105430479337E-01 8.397935568224E-01 -3.540871759416E-01 -1.514884289179E-01 -1.090629349300E+01 -5.429068418570E+00 2.563018182832E+00 2.687249202094E+01
 8.365775701318E-01 -1.248860580892E+00 8.891454460119E-01 7.919742040057E-01 -1.115231245837E+00 3.418834658273E-01 1.233089814569E+00 -6.278291448348E+00 -1.365488224016E+00 -1.821647792081E+00 -1.091556711928E+00 -1.050668462076E+00 -1.007294962035E+00 3.634107854913E-01 1.647931563446E+00 -3.504075855033E-01 -1.588318885293E+00 1.956826834461E+00 -1.560470872564E+00 -1.092311480951E+00 -2.647523846674E+00 -2.982414435136E+00 -1.013800265688E+01 -3.623633578578E-01 3.653543170483E+00 -1.072882307596E+00 2.143531216023E+00 1.330358647885E+00 1.749292925327E+00 1.362954265274E+00 4.360037165406E-02 6.766084340495E-01 -1.106863220866E+00 -1.093042883220E+00 -1.563218206416E+00 -2.840087311846E+00 -1.311136753915E+00 1.082145197066E+00 2.397586827632E-01 -1.595745401333E+00 9.213079488232E-01 1.283557901495E+00 4.036750314512E+00 3.381961714663E+01
 -2.039425572176E-01 3.507139201564E-01 -6.617453390776E-01 -2.217687255440E-01 1.160602631442E+00 1.008686801220E+00 2.540979492447E+00 -5.638301672043E-01 -5.036863905805E+00 -7.307820925839E-01 -9.250774979847E-01 1.427532284743E+00 5.091512446099E+00 1.063576396789E+00 -6.109963338520E+00 -1.368258675122E+00 -1.340135500869E-01 -9.298298213170E-01 1.060831396186E+00 -4.902523941910E+00 -2.868548000191E+00 -3.739011209950E-02 8.800854228727E-01 -1.711754549726E+00 -1.797141045254E+00 4.056804817009E+00 5.691417273091E-01 -8.492021635650E-01 -1.220701790664E+00 2.305144216323E-01 1.134332915676E+00 -4.383282582860E-01 -6.935392771580E-01 -4.594416116487E-01 2.935173211128E-01 1.525515461218E+00 -1.505525775550E+00 8.332462042874E-01 1.880183388132E+00 -1.842390022860E+00 2.040060585207E+00 -1.821475779774E+00 -7.991348266216E-01 -6.407387451631E+00 2.878412679377E+01
 -4.633889385595E-01 5.143481508631E-01 5.700374610312E-01 -8.396756863036E+00 -3.119795259586E+00 -1.002686755380E+00 3.294774901734E-01 -3.402280402867E-01 1.538207858825E+00 -1.049684415276E-01 -4.034234078637E-01 -1.459091117395E+00 3.570050989559E-01 1.145174258208E+00 3.310980260842E-02 1.012320550535E+00 6.379009731974E-02 -1.170777813871E+00 -6.718972205655E+00 -6.543964715536E+00 2.812627944589E-01 -7.131244643323E-01 6.036529883052E-01 9.896475840083E-01 -8.774103749448E+00 3.119894730079E+00 5.420079959601E+00 3.042137702212E-01 -4.403083135676E-01 -1.371242474529E+00 -5.849278010229E-01 -2.515989852801E-01 1.231482362792E-01 -1.564600400333E+00 -3.869456440506E-01 -2.609133204065E-01 -1.256306025843E+00 -5.408238001848E-01 1.037680283482E+00 1.430445427089E+00 -7.749550902911E-01 3.898619586168E-01 5.013799439798E-01 -1.656136056442E+00 1.130816091531E+00 2.504838476343E+01
 3.583769158276E-01 -4.867885398937E-01 6.604147607345E-01 6.633198736149E-01 -2.128842587948E+00 9.085391302989E-01 -5.085291396950E-02 -1.650795189223E+00 4.833547453752E-03 -1.888003523767E-01 6.338465306333E-02 -3.701901670662E-01 -4.751998423865E-01 4.426580688166E-01 -3.254781663819E-01 1.153291844591E+00 9.162185413510E-01 6.592338358702E-01 -9.470814873366E+00 -7.335588651637E+00 1.551186019734E+00 -2.752231088735E-01 1.649570359750E+00 -6.161916664347E-03 1.779749718672E+00 9.933416353265E-01 -3.810518789238E+00 1.125440017150E+00 -1.119033359807E+00 -1.448722379092E+00 -7.453774042643E-01 -1.164518030462E+00 1.108290074473E+00 -1.358941859171E+00 -3.915476581984E-01 -1.144162686428E+00 -4.528846573564E-01 -1.734422020506E-02 7.035175440139E-01 -2.002526855822E-01 -2.936275698536E-01 3.286712935443E-01 -2.105844206900E-01 -7.250010243077E-01 4.365229966674E+00 7.008332772708E+00 1.442477837578E+01
 4.480663298363E-01 -7.791857064765E-01 1.202454223796E+00 -2.361583826182E+00 -2.787275073860E+00 -9.700703308478E-01 -9.708149447170E-01 -1.701205545837E+00 -2.359836086364E-01 6.325719587508E-01 5.546054587839E-01 -3.577247620695E-01 7.256687572512E-01 -1.247512811359E+00 -2.227674848213E+00 3.671405084986E-01 -3.790671090509E-01 1.600466434690E+00 -2.477171882205E+00 4.903191404654E+00 -3.934162182100E-01 -1.011345147006E+00 1.641101371506E-01 1.824562200626E+00 3.685689360932E+00 -2.984617620789E+00 -7.284870512788E+00 1.185829416691E+00 3.592365637592E-01 1.653003242727E-01 -2.449216897937E+00 9.414886318676E-01 -1.384539463563E+00 -1.071536749787E-01 3.816636958429E-01 -1.629056191116E+00 2.381842052121E+00 2.673132285320E-01 -1.015525441883E+00 9.445166014017E-01 -2.658639122929E-01 1.602769204964E+00 2.917005250756E+00 3.187343263573E+00 -1.359234710970E+01 -4.788073005431E+00 1.217883627009E+00 2.615907540167E+01
 -4.750383874207E+00 -3.453701475650E+00 2.686506536241E+00 -4.194916719664E+00 3.711250783293E+00 2.199920724962E+00 -1.695557275815E+00 7.597849480550E-02 9.941593869577E-01 -1.016753253244E+00 -4.136450530599E-01 8.826773354402E-01 -1.052439022388E+00 6.701666527764E-01 -3.773372731066E-01 4.451755029821E-01 -3.113055807098E-01 1.099683061605E+00 9.122519964432E-01 1.405576454623E-02 -3.311179792645E-01 -8.841496295456E-01 -1.112219486214E-01 -1.242438187747E+00 -5.360057981827E+00 3.169510828005E+00 -3.473784350995E+00 -3.731102881056E-01 1.380178318655E-01 9.405919937480E-02 1.645119410455E+00 -6.204894812732E-01 2.174893800745E-01 3.411665808247E-01 2.721809302017E+00 -1.078930494024E+00 2.086874118714E-01 -4.050454320652E-01 -1.975798434485E-01 5.905230433128E-01 -2.081537735050E-01 2.176122526200E-01 -1.190135172778E+00 1.942058558498E-01 -3.607261025254E-01 -3.867199863719E-01 -8.891882216433E-02 -6.511445407949E-01 1.891602970625E+01
 -2.534032840578E+00 -1.901786885884E+00 1.944640511518E+00 1.697957319719E+00 -3.659187531179E+00 -2.285500737497E+00 -6.791432848162E-01 2.316522784572E+00 -1.232555286249E+00 1.214934190863E+00 -1.196284987744E+00 1.432244275652E-02 -1.340673761199E+00 -4.886093907801E-01 -1.962808514106E+00 5.714518881409E-01 -1.396083171564E+01 3.064860212858E+00 -1.663390792225E-01 -3.151429278205E-01 1.662389895236E-01 -1.287878778284E+00 -6.473589139059E-01 1.387839261802E+00 2.371482900483E+00 5.167781783122E-01 7.327709421776E-01 3.146967576580E-01 1.444113726886E-01 2.129935720528E+00 -3.904666025147E-02 1.649702657025E-01 -1.986460149623E+00 1.641620859739E+00 -5.430507697060E-01 2.566068059560E+00 7.711977442145E-01 1.088330682504E+00 3.347125752980E-01 -5.608873176334E-01 -2.862918361371E+00 2.305377015999E-01 2.427792425011E-01 -1.657111492247E-01 -3.044025217349E-01 1.872494349292E+00 1.143290549880E+00 7.443412032640E-01 -2.617250338141E+00 2.399626639730E+01
 1.351500360958E+00 1.490405409314E+00 -1.105464902668E+00 3.417418189035E+00 -3.631881379364E+00 -1.456369547218E+00 1.672710043891E+00 5.360564548117E-02 1.300442813195E+00 2.167933089201E-01 -1.874715206819E+00 9.093520625510E-02 1.709488949493E+00 6.304655642363E-01 -1.981892416973E-01 -6.574252795129E-01 1.378726192446E+00 4.623275932243E-01 -5.932554112966E-01 -2.242838391589E+00 1.159662937601E+00 6.305465926712E-01 1.638718995732E-01 -1.036848469282E-01 -2.354691564982E+00 -8.827428794201E-01 -1.820996641348E+00 -1.056326711318E+00 1.543661710707E+00 6.883491338751E-01 -9.488595936961E-01 -1.897091549668E+00 -1.289103439064E+00 -1.999735591978E+00 5.397082722190E+00 -1.314036872453E+01 -5.417795783250E-01 1.917686237114E+00 -4.398773139252E-01 1.082352656024E+00 -1.010651429472E+00 -1.833948490607E+00 -1.164021368367E+00 4.264666571077E-01 -1.008588873545E+00 2.983718078304E-01 1.013225460520E+00 2.865522406680E-01 1.851984982741E+00 -1.910023059989E+00 2.367399351896E+01
 1.010982671691E+00 2.000038193608E-01 6.365935656578E-01 3.845662964900E-01 -7.791950622568E-01 -6.607487780024E-01 -2.512795449222E+00 1.563870837294E+00 -8.732193753609E-01 -1.745242384029E+00 3.917129326479E-01 -8.473735293505E-01 -5.341920653129E-01 1.211946708209E+00 2.645832245841E-01 -5.860531773512E-02 5.640373267423E-01 1.786298479190E+00 -7.459141003275E-01 1.895830180522E+00 -1.024893859122E+00 -5.465475055410E-01 1.552969210639E+00 4.889054057318E-01 -1.206449023794E+00 3.263588893474E+00 2.055425869919E+00 9.095371771933E-01 -5.565488388242E-01 1.322076134168E-01 -1.852576839743E-01 8.116455020214E-01 -3.414459207407E-01 -5.132753230831E+00 -9.874003995014E+00 -2.307450469380E-01 -4.229106866593E-01 -1.097989271766E+00 1.695855540738E+00 5.768634095560E-01 -3.011758447259E+00 -1.789338307467E+00 4.428392158182E-01 1.982715923386E+00 -8.193483696745E-01 -9.762689300661E-02 -5.551943516263E-01 7.162067649612E-01 -2.521725393122E+00 -1.651331594986E+00 -3.282539205847E+00 1.772953053551E+01
 3.364608949537E+00 -1.576987084030E-01 1.542315522644E+00 -7.304760624254E-01 1.394603000806E-01 -1.538628416790E+00 3.326098294196E+00 -8.338854273337E+00 3.261384294364E+00 -6.997089785544E-01 -3.290010353949E-01 -6.419449298642E-01 4.841816295562E-01 -6.369266823027E-01 -3.391715590873E-02 -2.050199119717E-03 2.402795197378E+00 -5.129694414352E-01 -1.716576840435E+00 -6.995392643487E-02 2.851821129288E-01 6.762043228196E-01 -7.985525323231E-01 5.519627456841E-01 3.667830587918E+00 -1.247576045927E+01 -3.287375971002E+00 5.394284248631E-01 8.538089436401E-01 1.640666204920E-01 -3.520226126491E-01 9.129723936332E-01 -6.946196995725E-01 -6.993434615248E+00 -1.036972840420E+01 -1.997677998226E+00 1.180532736215E+00 1.817293614241E-01 1.181091050408E-01 -8.279952040579E-01 1.733665658294E+00 2.041677887811E+00 7.110641785744E-01 7.801587408261E-01 -9.266494931973E-01 -9.571157779054E-01 3.094770331525E-01 8.569350010630E-01 -2.993121619605E+00 -3.992069029341E+00 -1.324460648680E+00 8.937269651849E-01 3.034476636106E+01
 2.865760267010E-02 -7.956718024921E-01 -3.929255738715E-01 1.985640491485E-01 8.527199713361E-01 3.936648614425E-01 -4.254913678053E+00 4.310997099328E+00 -2.716164398078E+00 -1.158377500454E+00 1.790118986552E+00 -7.286742236272E-01 2.461205577040E-01 2.028454949334E+00 5.555221161769E-01 -1.027513092771E+00 -8.857802111939E-01 1.053339994557E+00 -4.048874260368E-01 2.173360910207E-01 -9.092495186534E-01 -3.221259090671E-02 5.166902255396E-03 -1.034392637115E+00 2.546618830636E+00 -3.612160695351E+00 -2.218525228387E+00 2.427397292615E-01 -1.524900300707E+00 -1.971159566969E-01 6.786723706945E-02 1.580558888874E+00 1.128254907508E+00 1.556248312766E+00 1.600387996190E+00 2.739829511788E-01 5.864509596041E-01 -1.563219566925E+00 -9.778449171185E-01 4.536980451986E-01 1.367440188229E+00 -2.071785094261E-01 -4.609172547997E-01 8.817772326257E-04 -9.417439511723E-02 -9.435357956665E-01 1.160657112466E-01 5.620753809930E-01 -1.712069267343E+00 -4.691357961111E+00 -5.539953997829E+00 2.821891593286E+00 2.382577549233E-01 1.256691329278E+01