#BIOSYM hessian 1
@Type: Hessian Update
@Units
 distance: 	A
 energy: 	Kcal/Mol
#header
@natom 19

#label
L1      L2      L3      L4      L5      L6      L7      L8      L9      L10     L11     L12     L13     L14     L15     L16     L17     L18     L19

#element
Li Li Li Li Li Li Li Li Li Li Li Li Li Li Li Li Li Li Li

#matrix
57
 2.165019910900E+03
 7.639082119689E+01 2.150397569803E+03
 3.154674742644E+01 -2.702319742157E+01 2.226079762574E+03
 -1.709430415567E+01 1.379976807621E+01 8.269566890201E+00 2.236315360656E+03
 -2.326225176558E+00 -5.441828226543E+00 3.659910585575E+00 -2.445858006951E+00 2.236363308628E+03
 -5.205010160755E+01 5.259555381489E+01 2.146805799705E+01 -1.141704417364E+01 -1.329974741686E+00 2.205660237452E+03
 -2.054158613335E+00 -2.581641233371E-01 1.600551720217E+00 -9.600475079754E-01 -1.295072047097E+00 -1.122142252989E+00 2.240543105273E+03
 5.948123569304E+01 -6.679659595792E+01 -2.230829743116E+01 1.160713687432E+01 -2.156267144902E+00 4.082803321385E+01 3.983315817677E-01 2.190704408008E+03
 -1.222536692862E+02 1.163864389026E+02 5.305661443262E+01 -2.874995826432E+01 -7.415852314383E+00 -8.292829168120E+01 -4.098517871862E+00 9.228853456257E+01 2.041949608612E+03
 9.692900245788E+01 -9.484108967425E+01 -4.121257203745E+01 2.236192375404E+01 4.451707204764E+00 6.608228671513E+01 2.901103681856E+00 -7.454377810349E+01 1.570001861446E+02 2.116683228262E+03
 -1.090805494871E+02 1.194024649919E+02 4.197625243817E+01 -2.204891491463E+01 2.206044176274E+00 -7.476080047045E+01 -1.214533851780E+00 9.037298518814E+01 -1.706912514901E+02 1.372845138181E+02 2.077319971797E+03
 -1.637248475150E+01 1.166898608857E+01 8.485850385307E+00 -4.918684077261E+00 -3.239852382464E+00 -1.111612262266E+01 -1.216614042624E+00 1.038719348146E+01 -2.876079407782E+01 2.187497408870E+01 -2.013248848941E+01 2.235619531850E+03
 -8.303580827921E+01 8.034921436835E+01 3.559520805031E+01 -1.936383110172E+01 -4.289921433369E+00 -5.651682794432E+01 -2.585083385899E+00 6.339703538744E+01 -1.348366092453E+02 1.064843100881E+02 -1.169443347453E+02 -1.903544571645E+01 2.149485482433E+03
 8.191950975447E+01 -8.649823863487E+01 -3.261159152111E+01 1.737825527694E+01 1.182074298805E-01 5.604006821030E+01 1.390832096117E+00 -6.625971087184E+01 1.297353122685E+02 -1.036984103981E+02 1.205539059367E+02 1.621152219572E+01 8.851840280839E+01 2.151309933984E+03
 7.133256729953E+00 -1.880268205656E+01 1.089319262773E+00 -1.173115379057E+00 -6.442534453030E+00 5.268115753675E+00 -1.735990188331E+00 -1.156365273876E+01 6.121506419215E+00 -6.870397136509E+00 1.856307750034E+01 -2.621317568592E+00 5.129185701489E+00 -1.119163613059E+01 2.230316992758E+03
 1.729004969806E+01 -1.151796231452E+01 -9.211682470171E+00 5.235402069910E+00 3.855255984436E+00 1.151531978544E+01 1.363814235842E+00 -1.050998541464E+01 3.034388551971E+01 -2.311503586372E+01 2.058954770055E+01 5.821204354351E+00 2.015697645274E+01 -1.683061454884E+01 3.316582508215E+00 2.234476916489E+03
 3.866075229554E+01 -2.334741866716E+01 -2.142725188903E+01 1.233340827049E+01 9.974477989670E+00 2.568553944350E+01 3.421467823321E+00 -2.227890007297E+01 6.904830406939E+01 -5.215274753978E+01 4.433552777214E+01 1.384837542681E+01 4.561339982596E+01 -3.688423909228E+01 9.507441805489E+00 -1.528899223106E+01 2.203915324493E+03
 8.719504908857E+00 -4.199959626907E+00 -5.207519475068E+00 3.030707589044E+00 2.865575998964E+00 5.759313737410E+00 9.542592758002E-01 -4.475081445340E+00 1.605894423033E+01 -1.197052355130E+01 9.235361627015E+00 3.510318244206E+00 1.053839821054E+01 -8.004468946407E+00 3.043515922533E+00 -3.900283300155E+00 -9.536563844430E+00 2.238341486061E+03
 9.205596227840E+00 -1.268342665497E+01 -2.618726582613E+00 1.111899924864E+00 -1.684015529573E+00 6.258721814834E+00 -3.496296196647E-01 -8.928262530605E+00 1.289596077986E+01 -1.099045917256E+01 1.559213558637E+01 7.907123091214E-01 9.192000894314E+00 -1.094074185595E+01 -3.891092805947E+00 -5.391529863694E-01 -6.245513278973E-01 1.428956148764E-01 2.238931615705E+03
 2.971385883730E+01 -3.590477517837E+01 -1.027090186806E+01 5.174194743968E+00 -2.507816885756E+00 2.049448026341E+01 -1.940588891087E-01 -2.634579208234E+01 4.492273776342E+01 -3.676676397553E+01 4.695943206671E+01 4.301064160480E+00 3.111398650234E+01 -3.388832727834E+01 -7.946009660536E+00 -4.171741446235E+00 -8.279931193728E+00 -1.391453328131E+00 -5.099313595476E+00 2.226573267091E+03
 1.538354363023E+02 -1.339072795393E+02 -7.112725004861E+01 3.909887550339E+01 1.650996626729E+01 1.038420071427E+02 7.210249005347E+00 -1.096591578797E+02 2.558700329679E+02 -1.999085911161E+02 2.057682833166E+02 4.069160161902E+01 1.724941857088E+02 -1.594592379544E+02 2.871581779920E+00 -4.345608173847E+01 -1.009477637485E+02 -2.434015703872E+01 -1.291458685396E+01 -5.095784672446E+01 1.900533406599E+03
 3.669839948740E+01 -3.527336801959E+01 -1.579583295320E+01 8.550114366881E+00 2.010840498903E+00 2.487177244763E+01 1.146005432684E+00 -2.787681104398E+01 5.951773042541E+01 -4.703475237254E+01 5.146946991348E+01 8.496811045421E+00 4.036125936665E+01 -3.901804310734E+01 -2.121176635226E+00 -8.953918772320E+00 -2.030698746270E+01 -4.702302953639E+00 -3.968677195034E+00 -1.364370372269E+01 -7.627014591804E+01 2.223035645631E+03
 4.080860884050E+01 -2.724279869403E+01 -2.172995910854E+01 1.239778507987E+01 9.071087086274E+00 2.724442058983E+01 3.220082417153E+00 -2.484956695893E+01 7.173361524289E+01 -5.459030534902E+01 4.866964943274E+01 1.370974131372E+01 4.760258264808E+01 -3.975185366066E+01 7.832147080797E+00 -1.505311545227E+01 -3.610468529977E+01 -9.213078730694E+00 -1.324614421337E+00 -9.877736793562E+00 -1.027421740178E+02 -2.116371626631E+01 2.205297980406E+03
 6.451946857469E-01 1.525177061885E+01 -5.786505195919E+00 3.963920026759E+00 9.078032510547E+00 -1.427363771047E-01 2.581994456598E+00 7.659017018988E+00 8.343286820868E+00 -3.831543319543E+00 -1.045387815699E+01 5.789428175261E+00 4.284967958756E+00 4.146463896425E+00 1.344789580699E+01 -6.889723748411E+00 -1.822854378135E+01 -5.349777418688E+00 4.028301377933E+00 6.770104561094E+00 -2.500100617792E+01 -2.094213225980E+00 -1.625127834562E+01 2.222391516297E+03
 8.282260637909E-01 -1.811917368732E-01 -5.639870349178E-01 3.559528443299E-01 3.833905414984E-01 5.365946500452E-01 1.108120209364E-01 -3.177724473950E-01 1.645282998489E+00 -1.172602365275E+00 7.249119716320E-01 3.978900863337E-01 1.038177054313E+00 -6.797512721757E-01 4.899252193535E-01 -4.678961830928E-01 -1.149419755465E+00 -3.134160769445E-01 5.306789187863E-02 -4.389331780745E-02 -2.687582070354E+00 -4.706258273880E-01 -1.094686962915E+00 -7.644659551008E-01 2.240812139368E+03
 -5.749886272666E+01 4.595967166442E+01 2.799921255553E+01 -1.561012856617E+01 -8.490399315110E+00 -3.866124429156E+01 -3.343079658593E+00 3.889186601004E+01 -9.753164335117E+01 7.548893615051E+01 -7.398578454388E+01 -1.665175107893E+01 -6.538309557323E+01 5.834324062267E+01 -4.560259516341E+00 1.798008738718E+01 4.233318245298E+01 1.045693768571E+01 3.783738101435E+00 1.724722022355E+01 1.333342534169E+02 2.896551394468E+01 4.249528393429E+01 1.409259604217E+01 1.195072979766E+00 2.187498848233E+03
 3.262080752288E+01 -4.077661069481E+01 -1.078374625959E+01 5.323370537744E+00 -3.556027122734E+00 2.247608755260E+01 -4.726963621762E-01 -2.961267497232E+01 4.857870532164E+01 -4.004837816429E+01 5.249822451256E+01 4.224724370841E+00 3.378744299914E+01 -3.758004761599E+01 -9.904475688064E+00 -3.966567298869E+00 -7.468393997112E+00 -1.054264975350E+00 -5.941811605608E+00 -1.627691024621E+01 -5.373416259252E+01 -1.478577937057E+01 -9.404318383459E+00 9.062387994962E+00 2.171554278716E-02 1.768728960040E+01 2.222176581036E+03
 -9.290809504133E+00 2.011024678552E+01 8.733704020494E-02 6.027158521594E-01 5.899870734285E+00 -6.563738969878E+00 1.574238141417E+00 1.277445590374E+01 -9.677175182353E+00 9.683839052457E+00 -2.097013699018E+01 1.832174667214E+00 -7.589059188266E+00 1.322705790575E+01 1.010739751324E+01 -2.553739150748E+00 -7.623917629836E+00 -2.567067178679E+00 3.855299294271E+00 8.395474906550E+00 2.216780247273E+00 3.175885418017E+00 -5.987262544446E+00 -1.255108506433E+01 -4.159958184222E-01 2.420162234766E+00 1.030471475149E+01 2.231146589169E+03
 -5.813394139302E+01 6.211456865076E+01 2.284281813525E+01 -1.210174103318E+01 4.011984956071E-01 -3.963795922166E+01 -7.742472294870E-01 4.738050477013E+01 -9.150094995537E+01 7.332387045369E+01 -8.601475465034E+01 -1.120724905805E+01 -6.250926773333E+01 6.367367945828E+01 8.607512689500E+00 1.155996416821E+01 2.515912683590E+01 5.393699657152E+00 7.948166065030E+00 2.439136910984E+01 1.117161863328E+02 2.752168375990E+01 2.730992628807E+01 -3.899216859388E+00 4.322211869827E-01 -4.061000963656E+01 2.710439415697E+01 -9.985228022012E+00 2.195574041651E+03
 2.957019204549E+01 -3.222668721195E+01 -1.142762762214E+01 5.975752022185E+00 -5.126454495023E-01 2.023175066336E+01 3.530601483305E-01 -2.441491188592E+01 4.626004271780E+01 -3.722418928619E+01 4.421116532553E+01 5.518818567978E+00 3.172157739223E+01 -3.263941319082E+01 -4.943904866024E+00 -5.619644484023E+00 -1.214072782098E+01 -2.536288324279E+00 -4.165750163658E+00 -1.265969219304E+01 -5.584372247424E+01 -1.395121612158E+01 -1.329659524871E+01 2.697089230172E+00 -2.083657784508E-01 2.012109275966E+01 -1.414106632295E+01 5.575516541225E+00 2.328237851003E+01 2.228901615819E+03
 -6.313198688387E+01 6.459571704965E+01 2.579063547796E+01 -1.378728814083E+01 -1.185996411086E+00 -4.288744953249E+01 -1.288047433056E+00 4.997391692810E+01 -1.005712881252E+02 8.013059346346E+01 -9.133776406831E+01 -1.319070980924E+01 -6.849163589739E+01 6.826483043908E+01 6.956452050186E+00 1.373272675153E+01 3.047329248588E+01 6.785393104483E+00 7.868748976834E+00 2.522207712629E+01 1.253836083644E+02 3.017813879756E+01 3.245430741778E+01 -9.613251368000E-01 6.084206311559E-01 -4.646606089205E+01 2.774974697424E+01 -8.578362946844E+00 -4.835984199970E+01 2.473794472710E+01 2.188631626564E+03
 6.563988702289E+01 -5.259311858792E+01 -3.188101608145E+01 1.794721695022E+01 9.531761240531E+00 4.417259329655E+01 3.703176444832E+00 -4.451377552915E+01 1.115276501523E+02 -8.614759546446E+01 8.460198905357E+01 1.886587304035E+01 7.455439908060E+01 -6.654972136964E+01 5.245037182820E+00 -2.053449535630E+01 -4.822930059212E+01 -1.193754250796E+01 -4.492537951797E+00 -1.980921408573E+01 -1.525728805658E+02 -3.307667375877E+01 -4.845951021669E+01 -1.600420426018E+01 -1.314152169073E+00 6.097370950368E+01 -2.031658242502E+01 -2.664339119267E+00 4.626516409568E+01 -2.306537224112E+01 5.297220865018E+01 2.171551282015E+03
 3.405301684368E+01 -4.957357226142E+01 -8.806896620058E+00 3.858105589996E+00 -7.732624358491E+00 2.366086563558E+01 -1.662786627686E+00 -3.450592674087E+01 4.741230789287E+01 -4.043245649607E+01 5.979655941792E+01 1.903308971299E+00 3.363714073127E+01 -4.132730229140E+01 -1.630401202596E+01 -1.143152266437E+00 1.636149338138E-01 1.239580634253E+00 -8.014478573418E+00 -2.009546942491E+01 -4.553392308013E+01 -1.461750167391E+01 -2.746743809347E+00 1.762921770701E+01 3.636450117543E-01 1.241060182215E+01 -2.360837731689E+01 1.632897999375E+01 3.018178315171E+01 -1.605709979640E+01 2.956662913825E+01 -1.430006716657E+01 2.208294665891E+03
 8.043465873836E+01 -9.587040855433E+01 -2.819681189141E+01 1.441485945723E+01 -6.157857137471E+00 5.534342451738E+01 -4.559347571259E-01 -7.066976984875E+01 1.222486562382E+02 -9.968085473759E+01 1.261703858842E+02 1.200450996812E+01 8.437123252335E+01 -9.119221296567E+01 -2.029809038639E+01 -1.185056768250E+01 -2.379924789609E+01 -4.208089369128E+00 -1.357345063885E+01 -3.811991355471E+01 -1.401081340061E+02 -3.703979919550E+01 -2.800199556854E+01 1.681898766711E+01 -1.352687724796E-01 4.784663751829E+01 -4.333110578140E+01 2.168647140910E+01 6.547184723642E+01 -3.407233735080E+01 6.797056435834E+01 -5.457001335143E+01 -5.292176761003E+01 2.139301713233E+03
 -1.041521425742E+02 8.768930366848E+01 4.914178208381E+01 -2.750506121040E+01 -1.274594915469E+01 -7.034586026347E+01 -5.242735288694E+00 7.281851190581E+01 -1.751807527356E+02 1.359694449171E+02 -1.373135387064E+02 -2.844474316260E+01 -1.174298520077E+02 1.069346140944E+02 -4.763665927770E+00 3.083927958073E+01 7.188271594794E+01 1.756721534646E+01 8.239297559317E+00 3.329483803790E+01 2.360453252280E+02 5.206412788958E+01 7.276292130860E+01 2.055185461286E+01 1.887652928780E+00 -9.324515874839E+01 3.472520589085E+01 8.713966853222E-01 -7.464185299707E+01 3.739934194072E+01 -8.454128324614E+01 1.059789576074E+02 2.744419550075E+01 9.126383037215E+01 2.077743942669E+03
 -2.446108743956E+01 2.192362306327E+01 1.110996545722E+01 -6.244188692591E+00 -2.270380196839E+00 -1.672766031818E+01 -1.073872340579E+00 1.781631746807E+01 -4.082691850465E+01 3.179849168611E+01 -3.327303384929E+01 -6.209901906804E+00 -2.739368955306E+01 2.557024164789E+01 -7.921480179815E-02 6.768349848577E+00 1.557933683182E+01 3.739470103677E+00 2.329554379044E+00 8.409946711431E+00 5.396817052427E+01 1.216605954932E+01 1.594056600664E+01 3.405941385000E+00 3.795986098684E-01 -2.097818264327E+01 8.947589196235E+00 -8.339048398178E-01 -1.796180824859E+01 9.068862530005E+00 -2.009420011876E+01 2.376898184719E+01 7.912469527108E+00 2.287794025720E+01 -3.687310104575E+01 2.232470477573E+03
 1.058675332676E+01 -2.113079660270E-01 -8.006628409120E+00 4.879857479118E+00 6.239629613407E+00 6.805077105158E+00 1.919421815466E+00 -2.932295501145E+00 2.177070100759E+01 -1.544558234216E+01 7.719937645268E+00 5.975346426925E+00 1.387020426041E+01 -8.202986173590E+00 7.872311973236E+00 -6.813537045705E+00 -1.707152139485E+01 -4.666483235681E+00 1.408096435783E+00 4.543523291043E-01 -3.691178479236E+01 -6.253962672297E+00 -1.607384824479E+01 -1.216866096328E+01 -6.032054315994E-01 1.689843777539E+01 1.579571909576E+00 -6.997656131755E+00 5.161505855749E+00 -2.186570998675E+00 7.746775397127E+00 -1.918032458077E+01 7.011635962709E+00 3.130186611662E-01 2.728000420122E+01 5.488966974886E+00 2.231480515791E+03
 -7.503947144111E+01 7.391682531452E+01 3.167445712903E+01 -1.709357091349E+01 -3.079965132356E+00 -5.094806032713E+01 -2.044567837446E+00 5.793292803837E+01 -1.209587013834E+02 9.584971582810E+01 -1.065420149964E+02 -1.672045234365E+01 -8.213114158132E+01 8.031817662324E+01 5.819849420326E+00 1.757299730664E+01 3.954113167242E+01 9.036022910374E+00 8.610049083858E+00 2.870019639056E+01 1.534511023913E+02 3.623306891310E+01 4.151932204841E+01 2.232067558306E+00 8.682830181973E-01 -5.775684430357E+01 3.129508377823E+01 -7.914322172877E+00 -5.675467933772E+01 2.887631525995E+01 -6.187559544350E+01 6.588319834198E+01 3.190034716689E+01 7.767092116119E+01 -1.042138789496E+02 -2.448677575661E+01 1.143736633433E+01 2.166927099019E+03
 1.816560479236E+01 -1.480384284868E+01 -8.751453897400E+00 4.885056526214E+00 2.523902644701E+00 1.225147917295E+01 1.017368686264E+00 -1.243920346523E+01 3.073873722323E+01 -2.381459584936E+01 2.359012924751E+01 5.157753401294E+00 2.061023485474E+01 -1.852484927576E+01 1.219215567510E+00 -5.577072042725E+00 -1.308898267046E+01 -3.220212609138E+00 -1.281213460047E+00 -5.576213578108E+00 -4.180253341964E+01 -9.134553752543E+00 -1.317393178592E+01 -4.145436681132E+00 -3.625599220356E-01 1.665258964200E+01 -5.757372714359E+00 -5.421814816729E-01 1.291540254589E+01 -6.417471255898E+00 1.472347510081E+01 -1.901137265629E+01 -4.234525099622E+00 -1.541951967265E+01 2.913464470763E+01 6.563502680711E+00 -5.138484665263E+00 1.824165140530E+01 2.235646055616E+03
 -1.684108461536E+01 2.782856426596E+01 3.209730720891E+00 -1.109375194788E+00 5.704602155119E+00 -1.182882348304E+01 1.349855467109E+00 1.876349241419E+01 -2.192894478546E+01 1.937537149614E+01 -3.194361089147E+01 2.303920033891E-01 -1.589878846070E+01 2.145414072885E+01 1.087869221492E+01 -8.368111865974E-01 -3.800842661414E+00 -1.711002866208E+00 4.815075472227E+00 1.139736240675E+01 1.758309856799E+01 6.860955763545E+00 -1.949397438812E+00 -1.255746997124E+01 -3.360511622620E-01 -3.307001167961E+00 1.361845290395E+01 -1.070557013353E+01 -1.585037868062E+01 8.553374233973E+00 -1.494400714061E+01 3.873259510662E+00 1.982843286120E+01 2.982514119078E+01 -9.501063791163E+00 -3.253888590995E+00 -5.977652411251E+00 -1.545210436549E+01 1.264125736095E+00 2.228397825689E+03
 -5.005653769300E+01 5.607545024870E+01 1.881206979973E+01 -9.717011530506E+00 1.738716237546E+00 -3.426323421568E+01 -3.440254645128E-01 4.210087677532E+01 -7.752493272521E+01 6.269683980455E+01 -7.590722347578E+01 -8.807120364279E+00 -5.333157523447E+01 5.570852263593E+01 9.690317212296E+00 8.842733650669E+00 1.879021177014E+01 3.774295923977E+00 7.424297926114E+00 2.209766034637E+01 9.211183405326E+01 2.342360204072E+01 2.093890908703E+01 -6.363591014111E+00 2.827302300015E-01 -3.269661730714E+01 2.482479159587E+01 -1.065047961872E+01 -3.982446695528E+01 2.048696387275E+01 -4.199648243296E+01 3.753612183493E+01 2.890288246917E+01 5.936693039613E+01 -6.139423766518E+01 -1.505818322210E+01 2.524844438201E+00 -4.869726328380E+01 1.046722193770E+01 -1.570347586454E+01 2.205541587931E+03
 -3.675487807941E+01 2.233319375514E+01 2.038290415578E+01 -1.170336068311E+01 -9.502910714387E+00 -2.457972323997E+01 -3.356202986872E+00 2.125165823432E+01 -6.575015407513E+01 4.969065141403E+01 -4.229607007460E+01 -1.318485479761E+01 -4.350087063352E+01 3.522674697786E+01 -8.925990074795E+00 1.453702959766E+01 3.514507067659E+01 9.054394152738E+00 5.938144442335E-01 7.892536308050E+00 9.597777134659E+01 1.937282532295E+01 3.434189722426E+01 1.726646607904E+01 1.114616367110E+00 -4.025251393372E+01 7.159535220605E+00 7.156829161392E+00 -2.411516413578E+01 1.156357430015E+01 -2.916909883317E+01 4.603760796678E+01 -2.983540788495E-02 2.288112664642E+01 -6.861499509796E+01 -1.486761259399E+01 1.623941394126E+01 -3.776531995264E+01 1.244892055970E+01 3.547529622733E+00 -1.789830525652E+01 2.207534384884E+03
 -1.553718781092E+01 2.136941416270E+01 4.452434535685E+00 -2.050027317454E+00 2.813857063848E+00 -1.074281242602E+01 5.554391086668E-01 1.509883647468E+01 -2.218615994024E+01 1.868039727828E+01 -2.638425521782E+01 -1.316392751984E+00 -1.562732622695E+01 1.847781129097E+01 6.386614554864E+00 1.045979126297E+00 1.323495338609E+00 -1.546756505025E-01 3.326724320056E+00 8.614148968162E+00 2.259694010694E+01 6.805494284285E+00 2.493339699225E+00 -6.600683753207E+00 -1.047448446621E-01 -6.716713249887E+00 1.003531627746E+01 -6.458880418536E+00 -1.342877656351E+01 7.090306854433E+00 -1.337226705633E+01 7.740456531157E+00 1.344554668758E+01 2.277948620827E+01 -1.407237915493E+01 -3.868430473182E+00 -2.252586785880E+00 -1.467656787567E+01 2.242403151505E+00 -8.050256330473E+00 -1.264491218225E+01 -1.303627357805E+00 2.235241335183E+03
 8.445850452814E+00 -8.059258980414E+00 -3.657934827072E+00 2.028799955592E+00 4.932128382129E-01 5.766572919169E+00 2.744489107294E-01 -6.399439831035E+00 1.383302594664E+01 -1.086480181950E+01 1.182931255577E+01 1.963275807598E+00 9.323673752507E+00 -8.962247854028E+00 -3.955649573294E-01 -2.117467656309E+00 -4.795413811124E+00 -1.120955272855E+00 -9.310609735798E-01 -3.123341411583E+00 -1.784555530304E+01 -4.131103369911E+00 -4.984847955567E+00 -5.898432318834E-01 -1.045077682976E-01 6.796969997498E+00 -3.378477503065E+00 6.803840316680E-01 6.316175351206E+00 -3.220025182116E+00 6.957701417270E+00 -7.687668827300E+00 -3.288682915990E+00 -8.428724432553E+00 1.206509400315E+01 2.786606957552E+00 -1.505324615332E+00 8.375045432614E+00 -2.135141058546E+00 1.520984400453E+00 5.404789078150E+00 4.595151789130E+00 1.543960381102E+00 2.239903736715E+03
 -2.125284028796E+01 2.002889655194E+01 9.310594577581E+00 -5.017623173591E+00 -1.437271794017E+00 -1.442534688429E+01 -7.821548608629E-01 1.592914584918E+01 -3.464687202610E+01 2.735275840090E+01 -2.952452851319E+01 -5.101684638027E+00 -2.352202723111E+01 2.252707336754E+01 9.192483721215E-01 5.358016842688E+00 1.225206090182E+01 2.856024865115E+00 2.156314021153E+00 7.700945586027E+00 4.470781948501E+01 1.037687945539E+01 1.268247338673E+01 1.688665667593E+00 3.086270293055E-01 -1.711199904460E+01 8.312148660014E+00 -1.518067036053E+00 -1.589919697744E+01 7.989376009399E+00 -1.750819109260E+01 1.967039940242E+01 8.010253587815E+00 2.108029427823E+01 -3.083301457980E+01 -7.181089140151E+00 3.959148716086E+00 -2.108334144089E+01 5.394248490304E+00 -3.643532784698E+00 -1.335576134903E+01 -1.161079791142E+01 -3.764925631097E+00 2.430715158041E+00 2.234836310879E+03
 3.809279404220E+01 -4.175317063004E+01 -1.459550590155E+01 7.649489620450E+00 -8.704505281114E-01 2.597089555405E+01 3.228884088115E-01 -3.157750044106E+01 5.939707338299E+01 -4.781719641186E+01 5.709582541865E+01 6.969890594153E+00 4.069447904797E+01 -4.203037765378E+01 -6.556776547320E+00 -7.106285944570E+00 -1.525248719448E+01 -3.171231812773E+00 -5.466618434297E+00 -1.644574346019E+01 -7.150301315363E+01 -1.789341321064E+01 -1.679576164979E+01 3.806339067711E+00 -2.329186615656E-01 2.565479782522E+01 -1.837488825053E+01 7.383143047004E+00 2.993913297673E+01 -1.544070634280E+01 3.175854687234E+01 -2.925132017346E+01 -2.096959263881E+01 -4.406367324681E+01 4.755480096293E+01 1.156303119419E+01 -2.559907894547E+00 3.704572300999E+01 -8.184846138074E+00 1.123538593480E+01 2.652526386710E+01 1.463624484120E+01 9.244061879185E+00 -4.105126541426E+00 1.030103290701E+01 2.220968197711E+03
 -1.736837567516E+01 1.204630924740E+01 9.095614236252E+00 -5.172685711129E+00 -3.609186196676E+00 -1.162507365305E+01 -1.307047780358E+00 1.081068322219E+01 -3.033985552234E+01 2.315905695525E+01 -2.104174138131E+01 -5.678121326968E+00 -2.016956527985E+01 1.706409285499E+01 -2.951668102227E+00 6.219488536312E+00 1.487219917974E+01 3.774691972225E+00 6.787860675519E-01 4.402178656317E+00 4.307904674822E+01 8.963598701653E+00 1.469196942086E+01 6.400167010240E+00 4.468059322881E-01 -1.771080077446E+01 4.267068541823E+00 2.191709657315E+00 -1.175912351203E+01 5.743447197724E+00 -1.386793627881E+01 2.020673228112E+01 1.676443302517E+00 1.242143850980E+01 -3.044130238249E+01 -6.697497840127E+00 6.506221269993E+00 -1.764159080404E+01 5.497249375883E+00 4.706074223931E-01 -9.105852163983E+00 -1.414029207456E+01 -1.252413930744E+00 2.109640206347E+00 -5.355101055890E+00 7.274062185532E+00 2.234766981318E+03
 4.923575215248E+01 -4.443579274678E+01 -2.220439904156E+01 1.221835883751E+01 4.351887959305E+00 3.333157212859E+01 2.021093903359E+00 -3.593381571268E+01 8.131824863122E+01 -6.369855335551E+01 6.702061283742E+01 1.241994556898E+01 5.484444704823E+01 -5.148376972094E+01 -3.451924750024E-01 -1.327951755641E+01 -3.058032275064E+01 -7.292432432931E+00 -4.609830298195E+00 -1.703489345938E+01 -1.068817215770E+02 -2.425736450332E+01 -3.136360238149E+01 -6.215884614547E+00 -7.657549371244E-01 4.143535650879E+01 -1.814929324249E+01 1.960027332805E+00 3.614475228942E+01 -1.820345269775E+01 4.025882987459E+01 -4.724204898823E+01 -1.634344411179E+01 -4.649445936654E+01 7.349133623498E+01 1.688603576689E+01 -1.062201183080E+01 4.895908884470E+01 -1.300509841023E+01 6.881282044112E+00 3.023308798177E+01 2.915707599488E+01 7.909234659843E+00 -5.630701075638E+00 1.423337038284E+01 -2.327229420339E+01 1.319385901253E+01 2.207202538643E+03
 2.025495653501E+01 -2.266161704920E+01 -7.610190859304E+00 3.959510441969E+00 -7.104408835757E-01 1.385044705408E+01 1.164066873539E-01 -1.702731746787E+01 3.139917332928E+01 -2.535938878220E+01 3.069618951857E+01 3.552566765128E+00 2.156038673082E+01 -2.250685717531E+01 -3.875759099086E+00 -3.593181127394E+00 -7.621814129180E+00 -1.539175934436E+00 -3.020992047760E+00 -8.942022333136E+00 -3.737038475736E+01 -9.475737504731E+00 -8.494709262255E+00 2.542662406276E+00 -1.059985470286E-01 1.326784088487E+01 -1.003752769325E+01 4.288634574975E+00 1.607041911708E+01 -8.295123234378E+00 1.695844972709E+01 -1.515505130420E+01 -1.166398406879E+01 -2.395133376722E+01 2.478413422718E+01 6.067880592883E+00 -1.029222440867E+00 1.968091780702E+01 -4.243027148924E+00 6.334787005571E+00 1.429794939426E+01 7.299976103439E+00 5.108200603269E+00 -2.173455975552E+00 5.430745436382E+00 -1.070422670822E+01 3.695853123991E+00 -1.222728412650E+01 2.235071164002E+03
 3.596869770605E+01 -3.055206716191E+01 -1.684194130977E+01 9.294660707029E+00 4.211187377934E+00 2.410413377479E+01 1.701087263551E+00 -2.524350332681E+01 5.998861076371E+01 -4.676017013647E+01 4.752071756678E+01 9.731114250299E+00 4.035338130454E+01 -3.695265509013E+01 1.293706087229E+00 -1.041925953921E+01 -2.427413382095E+01 -5.905277447999E+00 -2.841388549440E+00 -1.160980620096E+01 -8.043817436076E+01 -1.783845851580E+01 -2.462728628530E+01 -6.627987044396E+00 -6.428331087262E-01 3.168811497431E+01 -1.213395864806E+01 -6.574287603878E-02 2.577863991679E+01 -1.291335619130E+01 2.908291708600E+01 -3.613445002184E+01 -9.821778541639E+00 -3.185064549361E+01 5.574744505676E+01 1.271066954706E+01 -9.101273734721E+00 3.578362189883E+01 -9.922863025913E+00 3.547115542101E+00 2.121748136036E+01 2.318174721347E+01 4.972666875243E+00 -4.167840294938E+00 1.053101957096E+01 -1.643575185641E+01 1.031419587365E+01 -2.514394901238E+01 -8.580815378694E+00 2.221885350406E+03
 -2.419806323770E+01 1.463563641228E+01 1.340728509744E+01 -7.703840957127E+00 -6.237615179897E+00 -1.607725241497E+01 -2.145664050845E+00 1.395227810145E+01 -4.319383638708E+01 3.264066980842E+01 -2.776269016857E+01 -8.667486563569E+00 -2.855112037015E+01 2.310069221144E+01 -5.922766533061E+00 9.557170222111E+00 2.309042322088E+01 5.959613801111E+00 3.871168195507E-01 5.187216292972E+00 6.311814877395E+01 1.270737112155E+01 2.257309624684E+01 1.138112443641E+01 7.214389489039E-01 -2.646777700994E+01 4.683570795387E+00 4.754280124368E+00 -1.576400313482E+01 7.598003821483E+00 -1.908376106806E+01 3.018268630840E+01 -7.763904422656E-02 1.493402631222E+01 -4.499092454900E+01 -9.758058104085E+00 1.067115649226E+01 -2.475173468496E+01 8.185451865645E+00 2.362260097959E+00 -1.175974477996E+01 -2.196012565330E+01 -8.360280986739E-01 3.005340926650E+00 -7.656488570107E+00 9.557958885236E+00 -9.298663343372E+00 1.913499678052E+01 4.775411309019E+00 1.518589216620E+01 2.226411258218E+03
 4.285634818433E+01 -5.655087896683E+01 -1.311086548837E+01 6.261750880779E+00 -6.404775030997E+00 2.956854635008E+01 -1.148644133859E+00 -4.043001759954E+01 6.236198922541E+01 -5.199330378343E+01 7.107840654048E+01 4.469954408285E+00 4.365105951592E+01 -5.023484892420E+01 -1.555550411078E+01 -3.917552445559E+00 -6.373454179182E+00 -3.793099214328E-01 -8.580403016046E+00 -2.271216986591E+01 -6.602388036718E+01 -1.905402922007E+01 -9.303284162228E+00 1.540834200751E+01 1.794778062347E-01 2.062162615471E+01 -2.628253915633E+01 1.591220063507E+01 3.637365911059E+01 -1.912671175771E+01 3.666420095213E+01 -2.367424003326E+01 -3.438620756942E+01 -6.017577662165E+01 4.176778567576E+01 1.113132545724E+01 4.385941010841E+00 4.073826134493E+01 -6.796753179636E+00 2.028986606151E+01 3.388497968897E+01 6.193379443009E+00 1.444944093337E+01 -4.328759268054E+00 1.063713208489E+01 -2.487621908927E+01 4.408195386689E+00 -2.270094858834E+01 -1.368350320615E+01 -1.468740347585E+01 4.010339767109E+00 2.203361540825E+03
 7.104565698227E+01 -7.027250187985E+01 -2.985994626932E+01 1.607415527665E+01 2.710485748766E+00 4.814626407343E+01 1.832719431777E+00 -5.498752302184E+01 1.142329505484E+02 -9.061313154711E+01 1.010399219008E+02 1.570721128131E+01 7.760520465415E+01 -7.607899097102E+01 -5.790596289308E+00 -1.646463323353E+01 -3.698526232750E+01 -8.429107761747E+00 -8.217765304102E+00 -2.731149771558E+01 -1.446059856881E+02 -3.421694478738E+01 -3.891044611046E+01 -1.705091517645E+00 -8.007909222922E-01 5.432068313135E+01 -2.980233504671E+01 7.734291548122E+00 5.374570300682E+01 -2.738083297929E+01 5.851524751022E+01 -6.194148029055E+01 -3.054951930406E+01 -7.383410577661E+01 9.810543434268E+01 2.310730722195E+01 -1.054218748404E+01 6.985050270859E+01 -1.716670777305E+01 1.488911857879E+01 4.621036922917E+01 3.537158754916E+01 1.402220582497E+01 -7.910415273589E+00 1.991696697373E+01 -3.510365410285E+01 1.654623372907E+01 -4.616943451983E+01 -1.866736426724E+01 -3.366572226291E+01 2.315483827656E+01 -3.885752688920E+01 2.174853313950E+03
 -3.762350072914E+01 3.838509649001E+01 1.542424279014E+01 -8.122160951960E+00 -8.149305188074E-01 -2.549518558011E+01 -8.268186109110E-01 2.968616157613E+01 -5.976489494389E+01 4.774889073124E+01 -5.430468400336E+01 -7.959419707892E+00 -4.084896975987E+01 4.069160252501E+01 4.161862517190E+00 8.171578801685E+00 1.821040849805E+01 4.041630220168E+00 4.563624814017E+00 1.494236681418E+01 7.442919415891E+01 1.796058026627E+01 1.936185663371E+01 -5.122809485051E-01 3.942620576321E-01 -2.762337680682E+01 1.643873610269E+01 -5.029829901742E+00 -2.885104443497E+01 1.466886457555E+01 -3.112930362838E+01 3.174797008867E+01 1.750873018532E+01 4.050380742640E+01 -5.065394207546E+01 -1.209445239253E+01 4.686947499448E+00 -3.687227589798E+01 8.768908477601E+00 -8.828310368187E+00 -2.486827390946E+01 -1.732636418811E+01 -7.910251848990E+00 4.191341514194E+00 -1.033922633351E+01 1.892622100617E+01 -8.267966142347E+00 2.401327516016E+01 1.008984510463E+01 1.733325756524E+01 -1.138559752332E+01 2.173437525788E+01 3.487685365198E+01 2.222457241478E+03