#BIOSYM hessian 1
@Type: Hessian Update
@Units
 distance: 	A
 energy: 	Kcal/Mol
#header
@natom 19

#label
L1      L2      L3      L4      L5      L6      L7      L8      L9      L10     L11     L12     L13     L14     L15     L16     L17     L18     L19

#element
Li Li Li Li Li Li Li Li Li Li Li Li Li Li Li Li Li Li Li

#matrix
57
 2.184204953744E+03
 -2.955372627626E+01 1.860460407307E+03
 3.927444978517E+00 5.654318819627E+01 2.223358830861E+03
 -3.408252016142E+01 4.609365311462E+01 1.257933048310E+01 2.168739478910E+03
 -3.593167591776E+01 2.101551729480E+02 1.116608531115E+01 -1.535963619895E+02 1.874956498082E+03
 1.078350436859E+01 1.751944584748E+01 -2.257908236683E+01 4.605475651338E+01 9.316076225691E+01 2.195820560551E+03
 -5.023547445192E+00 3.949112706267E+01 4.718492630527E+00 -3.263495109799E+01 -7.947744149979E+01 2.232259605397E+01 2.223408785111E+03
 3.396743676075E+00 1.015179909936E+01 3.189825455131E+00 -9.420848673037E+00 -2.523087551969E+01 9.234292885980E+00 -6.074589527501E+00 2.238070239051E+03
 3.131076208032E+01 2.343041108194E+01 3.049624694732E+00 4.399774894500E+00 -1.399736720344E+01 7.228338383924E+00 -5.202941214450E+00 -5.226438797259E+00 2.219189971968E+03
 -9.762171850175E+00 -2.961340246970E+01 -2.350702070106E+00 1.218684706141E+01 4.050057894812E+01 -1.142144656938E+01 9.488768911369E+00 4.515008271009E+00 1.031121589061E+01 2.232882286482E+03
 -2.596710186769E+01 -2.087505797355E+01 -2.795123384719E-01 -7.422247706807E+00 3.065731202151E+00 -1.814596677607E+00 2.259897735432E+00 3.359270054719E+00 1.667948167804E+01 -7.298622522267E+00 2.227692655143E+03
 1.456570120985E+01 1.184777481804E+02 -1.856339110443E+00 -4.360755876658E+01 -1.337773467154E+02 2.729871572359E+01 -2.946402886152E+01 -1.141594268850E+01 -2.081129727254E+01 2.112871423108E+01 1.438816934972E+01 2.176846702446E+03
 -8.485468370800E+01 -1.019047898707E+02 1.089828904682E+00 -1.223163889639E+01 4.534534842214E+01 -1.107535482605E+01 1.463123127596E+01 1.325378725633E+01 5.712240324784E+01 -2.815444147231E+01 -4.471128707379E+01 6.223651399398E+01 2.085103680456E+03
 -1.394998666454E+01 -1.333600044610E+01 3.517500907076E+00 -1.088184761587E+01 -1.324586877856E+01 6.416376634661E+00 -2.443450843482E+00 1.657660664295E-01 6.708880105293E+00 -1.647788228550E+00 -5.933048787043E+00 2.594913744095E+00 -1.944596448807E+01 2.237111692088E+03
 1.458433234581E+01 1.021763907062E+02 1.331713339910E+01 -6.790074990101E+01 -1.831430831943E+02 5.549268155957E+01 -4.231939818734E+01 -1.757209726713E+01 -2.918605460637E+01 2.924314687582E+01 1.851840761213E+01 -8.079436883604E+01 7.834457207865E+01 -8.082311345690E-03 2.124847692492E+03
 -3.051457954997E+01 -1.210645485462E+01 -2.884921797258E-01 -1.617847606970E+01 -1.354821206056E+01 2.446192435592E+00 -1.387173920811E+00 2.610342440755E+00 1.790613994563E+01 -6.040593089323E+00 -1.458098082404E+01 9.363434366623E+00 -4.772351260520E+01 -7.162006772834E+00 1.190673198532E+01 2.224564877654E+03
 1.636583201387E+02 -7.055322601144E+01 -3.084435394919E+01 2.176914937893E+02 4.015344841434E+02 -1.198000411530E+02 8.235783823699E+01 1.582727028308E+01 -5.803534693955E+01 -1.355024171669E+01 5.695878485691E+01 7.874307028389E+01 1.575755931841E+02 4.576322151982E+01 1.313308558329E+02 8.159037378463E+01 1.501271652602E+03
 4.272379793520E+01 1.394659258033E+01 8.439201987367E+00 5.804336018461E+00 -1.596409054955E+01 1.379316880943E+01 -6.818103971407E+00 -7.468634951596E+00 -3.025423687742E+01 1.392894487661E+01 2.296520710837E+01 -2.561724827026E+01 7.739077690350E+01 8.733776481596E+00 -4.010791120766E+01 2.485712870064E+01 -7.895678998399E+01 2.197713260348E+03
 -2.752090294694E+01 -7.286598327715E+01 6.830840673617E+00 1.618215342837E+00 3.709548789852E+01 -9.501917983794E-01 8.633849351825E+00 4.921907110247E+00 1.889701408143E+01 -1.134962601119E+01 -1.511833209685E+01 3.125889611295E+01 -5.598999042230E+01 -7.075921505799E+00 3.391342014985E+01 -1.484107438336E+01 3.667169357885E+01 2.352284141287E+01 2.216561441577E+03
 4.496918530125E+01 5.742456890211E+01 -9.362560278341E+00 2.335864474118E+01 1.278649069860E+01 -1.195597652778E+01 1.309572342430E+00 -2.915636687395E+00 -2.479421421409E+01 9.301846388104E+00 2.089071592340E+01 -2.001897601008E+01 7.110340851601E+01 1.180355284838E+01 -1.693826819080E+01 2.375756705071E+01 -1.209406090017E+02 -3.203689631787E+01 2.686020774900E+01 2.201902483298E+03
 -6.393073293148E+01 2.202813603059E+01 -1.363326595154E+00 -5.321346542298E+01 -8.645091742849E+01 1.573546119480E+01 -1.490633019181E+01 1.261251014341E+00 3.253211933384E+01 -5.477214397414E+00 -2.731722597047E+01 -4.565604739609E+00 -8.327969214798E+01 -1.536522056872E+01 -5.491647103145E+00 -3.471972022887E+01 2.196370492308E+02 4.654127180638E+01 -2.114467428493E+01 4.596343958596E+01 2.159852719709E+03
 1.094010445829E+02 8.114076694732E+01 -2.033512537159E+01 8.104583773719E+01 9.672095497319E+01 -4.153545133007E+01 1.752716408323E+01 -2.381490362334E+00 -5.466820899356E+01 1.380520977902E+01 4.743724808857E+01 -1.982527316763E+01 1.542018097948E+02 2.912333721974E+01 -6.091969555589E+00 5.704765032637E+01 -3.483575572935E+02 -7.161606958367E+01 5.321384141906E+01 -9.028748527107E+01 1.221093366094E+02 2.019000400891E+03
 3.523232136068E+00 2.907918040933E+01 -1.930974598101E+01 2.924737184402E+01 5.563984294702E+01 -3.399741162924E+01 1.445431848853E+01 6.808706744429E+00 7.701516902367E+00 -8.325595277557E+00 -3.068827659447E+00 1.636722202562E+01 -1.231144605679E+01 3.994165836931E+00 3.842921204666E+01 -1.134441078139E+00 -6.894822554117E+01 1.438367154130E+01 -8.030801716078E-02 -7.136312856442E+00 3.950808384077E+00 -2.364450725293E+01 2.214122453980E+03
 6.994261773464E+01 -2.709793262285E+01 -1.171657523820E+01 8.771448609797E+01 1.603152625029E+02 -4.657032262074E+01 3.235986696132E+01 5.660442603191E+00 -2.629826439075E+01 -3.989331290420E+00 2.506508927978E+01 2.911037894955E+01 7.075933623303E+01 1.923907758724E+01 4.887314838500E+01 3.549426385937E+01 -3.054437763863E+02 -3.601753648809E+01 1.706401583239E+01 -5.164429211314E+01 9.280435536742E+01 -1.470113228794E+02 -2.634255208311E+01 2.114579802018E+03
 1.451679381679E-01 -1.315160777588E+02 7.837788544502E+00 4.787111525201E+01 1.376957399808E+02 -2.108496496797E+01 2.870744043064E+01 9.035050667233E+00 1.046598421554E+01 -1.723283007533E+01 -6.701089544138E+00 5.991087080829E+01 -3.781458277409E+01 8.437097342266E-03 7.036119405682E+01 -5.366612968543E-01 -1.117295595187E+02 9.856580756033E+00 -2.585116525707E+01 1.070795768946E+01 2.321496050673E+01 -3.289490349778E+00 -9.411097305618E+00 -4.393045362365E+01 2.178407238593E+03
 -5.741162858187E+00 -4.989515750076E+01 1.223107685339E+00 1.782274944004E+01 5.447293759603E+01 -1.075728695581E+01 1.202471932462E+01 4.596585082505E+00 8.296720690383E+00 -8.600659345617E+00 -5.732620722808E+00 2.623374213549E+01 -2.506789955099E+01 -1.023361719864E+00 3.269431334494E+01 -3.700793131929E+00 -3.220575205401E+01 1.015905816304E+01 -1.285586569236E+01 8.145885324109E+00 2.221979556533E+00 8.098023660884E+00 -6.254013735246E+00 -1.197821713922E+01 -2.477097334155E+01 2.230120921892E+03
 -2.737350065410E+01 -1.995720508821E+02 1.087540073662E+01 5.490009778294E+01 1.863224786238E+02 -2.857222038195E+01 4.020701759009E+01 1.536847946052E+01 3.128839740172E+01 -3.034572122912E+01 -2.280110811365E+01 9.480090193570E+01 -9.745244153553E+01 -6.506413306885E+00 1.123396412274E+02 -1.586213874660E+01 -8.747528663409E+01 3.664659485089E+01 -5.057704323958E+01 3.682052781091E+01 2.218925056004E+00 4.649428341014E+01 -1.475243962251E+01 -3.146377114545E+01 -9.040709187730E+01 -3.907328635190E+01 2.096337713417E+03
 2.399715723988E+01 3.064563874849E+01 -6.341301823918E+00 1.542111592548E+01 1.320042113522E+01 -9.396971465592E+00 2.294350223420E+00 -8.579452641100E-01 -1.228128843741E+01 3.953533383772E+00 1.067473528269E+01 -8.329973014757E+00 3.593024667156E+01 6.543723882615E+00 -4.774360764706E+00 1.240364356170E+01 -7.089888495449E+01 -1.556099020336E+01 1.375916883444E+01 -2.096627292491E+01 2.487263926624E+01 -4.953731938096E+01 -6.058261189009E+00 -3.000714332552E+01 3.951964614522E+00 3.424124436917E+00 1.684014643966E+01 2.229365720563E+03
 -6.521641583897E+01 -5.626785008731E+01 6.308839785965E+00 -3.215759515443E+01 -2.014701834424E+01 9.952631312722E+00 -1.509085671974E+00 5.178884734036E+00 3.746980869471E+01 -1.376612956030E+01 -3.086764695530E+01 2.607754185949E+01 -1.033600706871E+02 -1.618550534159E+01 2.721553464217E+01 -3.518518640880E+01 1.716798083398E+02 5.023755839887E+01 -3.585194605030E+01 5.370349338850E+01 -6.973985419921E+01 1.258466693090E+02 3.287761552045E+00 7.390731879204E+01 -9.796148970714E+00 -1.050986904500E+01 -4.580705298657E+01 2.841818122986E+01 2.164204931354E+03
 -2.318986699764E+01 -8.372030490797E+01 1.048296253424E+01 2.367116946353E+00 3.884609653603E+01 2.843328486027E+00 8.287633889689E+00 3.955504507364E+00 1.545370281159E+01 -1.010117247604E+01 -1.271301464484E+01 3.080486378333E+01 -4.874006370767E+01 -6.597894162317E+00 3.015506780596E+01 -1.200797802057E+01 2.781319104777E+01 1.782052551470E+01 -2.349350865656E+01 2.486174973855E+01 -1.483709388585E+01 4.768332989934E+01 3.817890901886E+00 1.291476429564E+01 -2.807935638795E+01 -1.278280752832E+01 -5.120762179719E+01 1.300344802466E+01 -3.137075138889E+01 2.216959830766E+03
 1.156331515857E+01 8.233851973398E-01 -7.559684195474E+00 2.375359537956E+01 4.579518821308E+01 -1.824220327273E+01 1.026728056478E+01 3.271369380538E+00 -1.194489294304E+00 -3.738730699519E+00 2.568204018620E+00 1.138161280844E+01 5.511077256495E+00 4.137286996748E+00 2.157586306584E+01 4.960577522664E+00 -7.084091873631E+01 -5.649945836366E-01 1.701549656749E+00 -9.601474304860E+00 1.584895662956E+01 -2.947399862436E+01 -1.260239292454E+01 -2.851598155814E+01 -1.150552069694E+01 -4.538426607389E+00 -1.219926589206E+01 -6.255426355771E+00 1.176818418960E+01 2.221236191453E+00 2.232276852934E+03
 -7.896441806860E+01 -1.638751378007E+02 2.998533881142E+01 -3.920068946298E+01 -2.186914684500E+00 3.240703435859E+01 1.707618135536E-02 4.396534313931E+00 4.183504774293E+01 -1.740622524520E+01 -3.649871311179E+01 4.703925997437E+01 -1.286384625777E+02 -2.258788467249E+01 3.301163484325E+01 -4.012655796236E+01 2.047504335426E+02 4.998179785057E+01 -5.549244326564E+01 7.484769395275E+01 -7.221002233633E+01 1.667996960210E+02 2.415678558378E+01 8.713749416614E+01 -3.610488407829E+01 -1.960419288501E+01 -8.796541173346E+01 4.088110611914E+01 -9.738791736406E+01 -5.516989241123E+01 1.942529533421E+01 2.085393855289E+03
 4.095086271426E+01 8.807753320048E+01 -1.282160033010E+01 1.304900229212E+01 -1.565266642731E+01 -1.005073047091E+01 -4.022677605863E+00 -3.979398345851E+00 -2.390788867383E+01 1.151283547168E+01 2.010357396335E+01 -3.073819631918E+01 7.183275254444E+01 1.118091160372E+01 -2.771625218568E+01 2.135880024817E+01 -8.999293809040E+01 -2.934779556545E+01 3.057347634683E+01 -3.872401861463E+01 3.611070525990E+01 -8.354161161550E+01 -7.573987300436E+00 -3.902041280572E+01 2.390098140106E+01 1.269512731534E+01 5.359512847921E+01 -2.066310455571E+01 5.120884738235E+01 2.985728047876E+01 -7.438421826926E+00 7.953100119814E+01 2.199051243990E+03
 7.357555981734E+01 -1.206143384056E+01 3.681758298592E+00 4.965646556813E+01 7.198502969628E+01 -9.075052074052E+00 1.062583183000E+01 -3.935332978640E+00 -4.067256584653E+01 1.041950687584E+01 3.314718246071E+01 -6.084855880139E+00 1.041850603601E+02 1.706676194390E+01 -1.026721301025E+01 4.074228201554E+01 -2.278841190395E+02 -5.820346934408E+01 2.827374558593E+01 -5.348391064133E+01 9.023400827345E+01 -1.373624392455E+02 1.430195740979E+00 -9.706752817375E+01 -1.649268285006E+01 1.937223846018E+00 1.297065854968E+01 -2.835866848165E+01 8.187667074514E+01 2.052229945030E+01 -1.456617238540E+01 8.469431416875E+01 -4.398405979983E+01 2.138352959621E+03
 2.477897987175E+01 3.832792661440E+02 -6.385077697698E+01 -3.542132724948E+01 -1.843860634006E+02 -3.149675165474E+01 -3.269240106518E+01 -6.519505591021E+00 -1.628020228139E+01 2.427659252314E+01 1.641537638780E+01 -1.072782841479E+02 8.566157606301E+01 1.345008392524E+01 -8.124085343268E+01 8.241706944369E+00 5.452624874851E+01 -2.802955487530E+00 6.862132162674E+01 -5.493929396742E+01 -2.634392580623E+01 -7.913758601241E+01 -4.029989067817E+01 2.174829492243E+01 1.247242306097E+02 4.549260133892E+01 1.862531603817E+02 -3.034572072833E+01 5.000835345284E+01 8.147380842952E+01 -5.350411451349E+00 1.636144649172E+02 -8.562850280045E+01 2.002912737103E+01 1.849159203210E+03
 2.484516122686E+00 -2.857570861990E+02 2.373325555157E+01 9.096521829244E+01 2.698538256455E+02 -3.136683735935E+01 5.482633423630E+01 1.606895340089E+01 1.690961372855E+01 -3.218251281549E+01 -1.124359970722E+01 1.183743578228E+02 -6.917915712017E+01 -7.058304762363E-01 1.316555517677E+02 1.350704388309E+00 -2.181220892552E+02 1.218639474277E+01 -5.247313381537E+01 2.253840375525E+01 5.130409053602E+01 -4.572714086743E+00 -9.422345831877E+00 -8.632128213059E+01 -1.273976417393E+02 -4.921766113372E+01 -1.821659531544E+02 9.185709138914E+00 -1.769281956983E+01 -5.900423684934E+01 -1.990517908358E+01 -8.036604980682E+01 5.058265699279E+01 -3.973131719749E+01 2.762558771613E+02 1.977025377504E+03
 -2.387351491837E+01 2.164367320898E+01 -1.061312162186E+01 -5.172759747596E+00 -2.812870115696E+00 -1.195644449599E+01 2.162485587337E+00 4.288011951988E+00 1.735662439719E+01 -6.913359876560E+00 -1.275621665396E+01 7.933309517125E+00 -4.078533244089E+01 -4.049661682903E+00 1.940223957246E+01 -1.451307887635E+01 4.987454273792E+01 2.654823900464E+01 -9.054813392076E+00 1.495150303562E+01 -3.011196516207E+01 3.665334196849E+01 -1.270280651493E+01 2.265780276027E+01 3.196153731789E+00 -2.867270143500E+00 -8.606201731395E+00 6.892550726815E+00 -2.653669053571E+01 -4.506084795474E+00 -4.785442446630E-01 -1.702876673915E+01 1.100137021600E+01 3.681706981006E+01 -2.943951227375E+01 1.327930978250E+01 2.222082951787E+03
 -4.097105850394E+01 5.142435349468E+01 1.602298070128E+01 -8.778796055881E+01 -1.842117634479E+02 5.684827167049E+01 -3.946484830254E+01 -1.143274628752E+01 5.061234715711E+00 1.485571815447E+01 -8.940803920167E+00 -5.218542432767E+01 -1.491325196262E+01 -1.319552205687E+01 -8.218910309450E+01 -1.873535485310E+01 2.620097087694E+02 6.420786529848E+00 1.532798796780E+00 2.856480007116E+01 -6.376417961831E+01 9.827774267561E+01 3.615090887017E+01 1.058059462102E+02 5.690312436435E+01 2.129691781757E+01 6.523514057699E+01 1.885383978929E+01 -3.888763495894E+01 2.233711241161E+00 2.892628457863E+01 -4.875945691945E+01 1.641229691067E+01 5.946185217581E+01 -3.824118679658E+01 1.076575525765E+02 -5.527269096848E+00 2.134699974962E+03
 -8.627071726403E+01 -4.801777900425E+01 1.447671208157E+01 -6.816815050788E+01 -9.018574898890E+01 3.378353388317E+01 -1.650270638258E+01 1.125352664808E+00 4.229095389489E+01 -9.324845201263E+00 -3.679281648306E+01 9.509881227121E+00 -1.179223910742E+02 -2.280335399632E+01 -1.709080612408E+00 -4.514585086033E+01 2.853866937383E+02 5.608387294089E+01 -3.910715006322E+01 6.975946621889E+01 -9.893599553368E+01 1.747165302959E+02 1.870593307524E+01 1.201177071427E+02 9.317769457728E+00 -3.796016555550E+00 -2.710196602449E+01 3.842311244039E+01 -9.816177044862E+01 -3.433696892318E+01 2.409681290536E+01 -1.266843331303E+02 6.295621079899E+01 1.103282200787E+02 4.676326772462E+01 1.764464832917E+01 -2.981722773400E+01 -8.261670558679E+01 2.102538977017E+03
 3.270029437491E+01 3.426321276147E+01 -2.134010916425E+00 1.093356535728E+01 -2.747909957749E+00 -9.593911503048E-01 -2.193840214381E+00 -3.728745222395E+00 -2.024165326025E+01 8.724478965003E+00 1.628353456410E+01 -1.822884843694E+01 5.564219413748E+01 7.868683242986E+00 -2.120982557560E+01 1.792665956101E+01 -7.445590093251E+01 -2.720738233243E+01 1.975330713877E+01 -2.724584834864E+01 3.354746584193E+01 -6.157837147758E+01 1.079328662599E+00 -3.257209591273E+01 9.575333568060E+00 7.346247648217E+00 2.996939959005E+01 -1.412843777498E+01 3.913517450014E+01 1.729850688287E+01 -4.223481669318E+00 4.956951157578E+01 -2.678067514142E+01 -4.050305740130E+01 -2.976086358577E+01 1.761346571458E+01 1.426095367432E+01 1.319725014875E+01 4.758618097590E+01 2.220374502059E+03
 3.241727599067E+00 4.351731863395E+01 -3.123529670759E+00 -1.251582606330E+01 -3.986629695693E+01 5.282322925000E+00 -8.404583676203E+00 -2.865564911793E+00 -4.882264579027E+00 5.782093563543E+00 3.491985957148E+00 -1.925389586916E+01 1.634639801977E+01 8.861210769428E-01 -2.203779420525E+01 1.941159741219E+00 2.419294825251E+01 -5.177183077334E+00 9.657565267900E+00 -6.056505046968E+00 -3.600028361206E+00 -5.669573557050E+00 2.146587039929E+00 9.254050345258E+00 1.936906255560E+01 7.959401594838E+00 2.958375835463E+01 -2.728921251663E+00 6.826444473917E+00 1.020225819785E+01 2.677439100175E+00 1.632105392142E+01 -9.978453337994E+00 1.078248164286E+00 -4.137475498805E+01 3.962020118857E+01 6.221471701503E-02 -1.472873882846E+01 2.352457556272E+00 -4.828575555235E+00 2.234644521046E+03
 -1.023223450649E+02 -1.710376004552E+02 3.274278297087E+00 4.205406342430E+00 1.092376272841E+02 -2.264324922162E+01 2.900715353985E+01 1.971048525800E+01 7.326473590825E+01 -4.075675119223E+01 -5.671150450808E+01 9.831341954720E+01 -2.029584722628E+02 -2.333593944660E+01 1.227457110265E+02 -5.772562521756E+01 1.450970070063E+02 9.776426607976E+01 -7.730040808697E+01 8.966555507826E+01 -9.176285785800E+01 1.839753236956E+02 -1.962303522646E+01 6.784197122603E+01 -6.945851149429E+01 -3.986708856058E+01 -1.521305788841E+02 4.463438949538E+01 -1.283877900522E+02 -6.921028600651E+01 1.787839129597E+00 -1.678472613848E+02 9.540019368441E+01 1.199275681267E+02 1.483733134268E+02 -1.315427563797E+02 -4.864539764214E+01 4.794111851397E+00 -1.381817943391E+02 7.087161390999E+01 2.711008406158E+01 1.968760054029E+03
 -1.210542666999E+01 -6.114391607471E+01 1.049841119771E+01 -1.013067645273E+00 1.996597737509E+01 7.441344918101E+00 3.480003026987E+00 1.200319033138E+00 6.724150360426E+00 -4.636364689939E+00 -6.146388040166E+00 1.717710924610E+01 -2.461746639816E+01 -4.219439132502E+00 1.266811774607E+01 -5.568107768126E+00 1.836330330223E+01 6.108733435401E+00 -1.403496608137E+01 1.493780972050E+01 -5.723025224895E+00 2.843286901834E+01 7.316160616954E+00 8.026947595447E+00 -1.780046977299E+01 -7.286371221927E+00 -3.055712145731E+01 8.190724620160E+00 -1.701730724671E+01 -1.539221487504E+01 2.917375949676E+00 -3.632525092818E+01 1.878842578018E+01 7.970374634638E+00 6.206612957974E+01 -3.945680979022E+01 1.209679326133E+00 -1.792481948298E+00 -2.019824554903E+01 9.120874157485E+00 6.433077564298E+00 -3.602022806739E+01 2.229828908596E+03
 2.616237082915E+01 -8.581748250412E+00 -2.038805159247E+00 2.686914982528E+01 4.713307257504E+01 -1.171855824350E+01 8.874172977823E+00 7.273916240659E-01 -1.165632797143E+01 5.474900175333E-01 1.029766896424E+01 5.940424605937E+00 3.051226356181E+01 6.682988015832E+00 9.813202660894E+00 1.384164869759E+01 -1.016458980222E+02 -1.644714241047E+01 7.725684564381E+00 -1.909612136257E+01 3.381438467715E+01 -5.256890439098E+01 -5.687391630485E+00 -4.238161825907E+01 -1.252487781941E+01 -2.559452878207E+00 -5.610807829984E+00 -1.072104704318E+01 2.819015824143E+01 5.680301525371E+00 -8.513086922623E+00 3.135213930040E+01 -1.485893293545E+01 -3.644033767353E+01 8.521183238463E+00 -2.567632001255E+01 1.038520692400E+01 3.240575619088E+01 4.267905250192E+01 -1.303455370888E+01 2.336263681262E+00 3.197866654780E+01 2.867489725271E+00 2.226126677731E+03
 -1.179129528253E+00 3.304624622318E+01 7.651973851761E+00 -3.277602415875E+01 -8.091208867530E+01 2.590185369427E+01 -1.828550956923E+01 -7.074630419618E+00 -8.447496747494E+00 1.090801405873E+01 4.539806350276E+00 -3.110230643359E+01 2.186160908864E+01 -1.938217971410E+00 -4.699343602944E+01 1.032011449400E+00 7.675320034598E+01 -1.191356366459E+01 9.916108825665E+00 -7.638054021569E-01 -9.822432548546E+00 1.260912076413E+01 1.794952561178E+01 2.955073983512E+01 2.807645868455E+01 1.262787395106E+01 4.154193084626E+01 1.484738760872E+00 2.702956164663E+00 8.564197175855E+00 1.091974643638E+01 1.266522040687E+00 -5.257487154644E+00 4.123293885222E+00 -2.439350572603E+01 5.184400004709E+01 6.034303526359E+00 -3.991031462837E+01 -1.237821775550E+01 -4.561868041843E+00 -8.358812653495E+00 3.762709543140E+01 2.677849386271E+00 7.272021453150E+00 2.220900878851E+03
 1.780436584101E+01 1.056642179129E+02 -8.529701074443E+00 -2.105798192099E+01 -8.220015492069E+01 8.715824068899E+00 -1.766901630765E+01 -6.904377272804E+00 -1.651661580460E+01 1.460951905231E+01 1.257654140767E+01 -4.586658213625E+01 5.225204397145E+01 4.678693536653E+00 -5.136883779424E+01 9.801812769682E+00 2.281154135353E+01 -1.903946025578E+01 2.700222813710E+01 -2.224669932317E+01 3.611581039993E+00 -3.372660039535E+01 3.254296471387E+00 7.314041012278E+00 4.371745311733E+01 1.891948143225E+01 7.177002160843E+01 -1.080666604877E+01 2.754086768213E+01 2.760237580825E+01 3.508156198642E+00 5.246055997706E+01 -3.045820069194E+01 -1.093065016435E+01 -1.003260487339E+02 8.938834380466E+01 4.001514942746E+00 -2.471710246791E+01 2.179070251298E+01 -1.689629272919E+01 -1.464599818025E+01 7.964122351393E+01 1.712762629843E+01 3.238406665365E-01 -1.810827902490E+01 2.204384984319E+03
 4.432035990047E+01 8.314069054801E+01 -7.834574119966E+00 7.287793922957E+00 -2.929790053755E+01 -1.382550982892E+00 -7.800856955102E+00 -6.164501478590E+00 -2.848921620345E+01 1.464902487387E+01 2.298119259857E+01 -3.674711005952E+01 8.196524550886E+01 1.117394215677E+01 -3.991080966930E+01 2.400547659591E+01 -8.267245174331E+01 -3.659732101343E+01 3.286386239125E+01 -4.028447792856E+01 3.974177361926E+01 -8.533284312075E+01 -4.199120072824E-01 -3.678537513790E+01 2.689234980446E+01 1.503608534850E+01 6.031362832120E+01 -2.086689810222E+01 5.534467164968E+01 3.075236369137E+01 -4.770532786487E+00 7.914361078922E+01 -4.299758101935E+01 -4.991199193117E+01 -7.720311870225E+01 5.380519469393E+01 1.630618234586E+01 9.236597149728E+00 6.432766050397E+01 -2.964289507945E+01 -1.093791956958E+01 1.090726569499E+02 1.779095035169E+01 -1.522142499105E+01 -1.028009022673E+01 -3.300655997886E+01 2.194407761215E+03
 2.824975318522E+01 1.110112162280E+02 -7.319443953683E+00 -1.887809373529E+01 -8.457883873742E+01 1.088262421048E+01 -1.894581356612E+01 -8.503930402209E+00 -2.357723035338E+01 1.777490014782E+01 1.802231676838E+01 -5.179529669112E+01 7.065985024146E+01 6.907372584818E+00 -5.998360956769E+01 1.581304066795E+01 1.640570127789E+00 -2.900193736124E+01 3.284714173282E+01 -3.030245682423E+01 1.485785547681E+01 -5.194828119323E+01 5.733843183661E+00 -2.157966613949E+00 4.612773248664E+01 2.126639236350E+01 8.064774604237E+01 -1.481836961739E+01 3.985610255885E+01 3.224735169100E+01 2.944678041717E+00 6.569867675319E+01 -3.798066195756E+01 -2.478226863130E+01 -1.033808776855E+02 9.279893056173E+01 9.893126871442E+00 -2.212410740105E+01 3.600186619713E+01 -2.348377557021E+01 -1.592562022568E+01 1.029022279334E+02 1.903359418553E+01 -3.763489464773E+00 -2.049765501654E+01 -4.120222509975E+01 -4.202698414108E+01 2.192580986746E+03
 -1.574924884779E+01 2.792490561308E+01 -3.399913462005E-01 -2.387161823439E+01 -5.092076586654E+01 1.011950512078E+01 -1.000173815213E+01 -1.895964485854E+00 5.383719714747E+00 2.457374994903E+00 -5.119942799131E+00 -1.350518686805E+01 -1.216534039606E+01 -4.029102992972E+00 -1.730698400557E+01 -8.275181945263E+00 7.927932737127E+01 8.398975971782E+00 -2.791848211641E-01 9.592139681468E+00 -2.426540736878E+01 3.188849214092E+01 4.657159747481E+00 3.260810955927E+01 1.801006247507E+01 5.645017114369E+00 1.852173147788E+01 5.714042429631E+00 -1.530403862317E+01 1.418336478835E+00 6.892158388713E+00 -1.244439975611E+01 4.809237835226E+00 2.474954084290E+01 -2.689541912724E+01 3.692201128771E+01 -6.991017447272E+00 -2.862862315554E+01 -2.703429666570E+01 6.235034303588E+00 -4.663746584323E+00 -7.803392164752E+00 1.424657442217E+00 1.093697481292E+01 -8.899909715366E+00 -7.562073662749E+00 4.611888278584E+00 -5.463005893284E+00 2.231308861196E+03
 9.301214680601E+00 -4.532598367146E+01 1.632306611393E+00 2.531483322306E+01 6.157958767619E+01 -1.133532986827E+01 1.258508583689E+01 3.264419147125E+00 -6.401929524296E-01 -5.492658032187E+00 1.436844871946E+00 2.167077868434E+01 -1.606043218034E+00 2.437827032242E+00 2.662211455190E+01 4.645188765598E+00 -7.256987899109E+01 -2.392194217959E+00 -5.656424014905E+00 -3.352154859110E+00 1.946008809740E+01 -1.978500967586E+01 -5.328455844078E+00 -2.938808705002E+01 -2.473037009788E+01 -8.969047135012E+00 -3.144394011934E+01 -2.570420822360E+00 6.788043253231E+00 -7.071728068303E+00 -6.847455492268E+00 -4.016516752290E-01 2.418800762588E+00 -1.818093696639E+01 4.298209787262E+01 -5.041362375798E+01 4.559708878122E+00 3.022661811443E+01 1.823688207662E+01 -1.476044474043E+00 7.113924139335E+00 -1.143376702159E+01 -4.712497830965E+00 -9.322281906935E+00 1.187379724835E+01 1.429877446227E+01 3.347678646823E+00 1.366359338353E+01 9.723747079809E+00 2.229511392710E+03
 4.602246740245E+00 1.102461081561E+02 -5.681300931852E+00 -3.850492635550E+01 -1.148536083088E+02 1.852312349775E+01 -2.425953406682E+01 -8.211874763244E+00 -1.185675919988E+01 1.562694927328E+01 8.019758347098E+00 -5.204054664436E+01 3.955078433399E+01 9.774299457228E-01 -6.206025751356E+01 3.129490962838E+00 8.292549689945E+01 -1.270748221423E+01 2.388286383351E+01 -1.243129345554E+01 -1.401324704161E+01 -5.353857642995E+00 9.089083197953E+00 3.203363074631E+01 5.247391816347E+01 2.148648782045E+01 7.839970611518E+01 -5.024692805100E+00 1.360028176030E+01 2.515016774923E+01 9.300811365741E+00 3.547320155841E+01 -2.299211846491E+01 7.183721130731E+00 -1.035370136688E+02 1.062460195031E+02 1.460451611370E-01 -4.581942656785E+01 -1.352903907396E+00 -1.087695518694E+01 -1.651860151970E+01 6.777787424217E+01 1.541410505513E+01 8.468197732384E+00 -2.426595922337E+01 -3.810508545950E+01 -2.618263964017E+01 -4.115576783531E+01 -1.385416122350E+01 2.007448832887E+01 2.196295874449E+03
 -1.181507269123E+01 -2.708299568686E-01 -2.572958622511E+00 -2.645779661024E+00 5.136960643319E-01 -3.501315751878E+00 1.225602378866E+00 1.877477516442E+00 8.143877097612E+00 -3.497271189435E+00 -6.165627654996E+00 5.592346022727E+00 -2.045204392389E+01 -2.318901546652E+00 9.369501597175E+00 -6.974088593460E+00 2.491736669701E+01 1.190434264395E+01 -5.852928655998E+00 8.496960387023E+00 -1.354832440991E+01 1.992910569428E+01 -3.853294245183E+00 1.112049253950E+01 -1.106274088220E+00 -2.133238908104E+00 -7.905785822717E+00 4.159051081596E+00 -1.366418142881E+01 -4.203118832260E+00 4.208145682968E-01 -1.278034059765E+01 7.449457041284E+00 1.650193525186E+01 -2.705045739596E+00 -8.644216300410E-02 -7.511610587734E+00 -3.076007410908E+00 -1.572808887172E+01 7.293018112380E+00 9.203916006359E-01 -2.534641433676E+01 -1.260045630775E+00 4.815711857349E+00 2.719095214698E+00 4.111374371459E+00 9.436835884053E+00 6.819427186796E+00 -2.787799289383E+00 1.319603596202E+00 2.184669115497E+00 2.237610708611E+03
 -3.035877443769E+01 -1.305913049519E+01 7.119238368596E+00 -3.025729528974E+01 -4.630348852276E+01 1.745288132819E+01 -9.276516402029E+00 -1.029786029026E+00 1.302379637359E+01 -1.124304848859E+00 -1.196353283637E+01 -2.282079173498E+00 -3.707492573696E+01 -8.444435675424E+00 -9.680895987124E+00 -1.541249253276E+01 1.142316256900E+02 1.691548051564E+01 -1.206245589730E+01 2.452176888242E+01 -3.608988209042E+01 6.381877832272E+01 1.057234733746E+01 4.757821353091E+01 8.012303516819E+00 9.093214714502E-01 -2.278921626519E+00 1.389527318907E+01 -3.387202977840E+01 -1.080658116987E+01 1.067463519844E+01 -4.505248991689E+01 2.145938817904E+01 3.897976881447E+01 1.450869241785E+01 1.459600611595E+01 -8.811689793630E+00 -3.667014711881E+01 -5.091813614462E+01 1.579442054712E+01 -5.672819286895E-01 -4.130569668630E+01 -6.945373423431E+00 1.626027779834E+01 -8.289130381477E+00 4.641971783298E+00 2.081006210074E+01 9.100953378564E+00 -1.100735903349E+01 8.421646688655E+00 -4.656150397125E+00 -4.886308354515E+00 2.221359731195E+03
 4.379423086343E+01 9.315830562759E+01 -1.220054822521E+01 1.132680304264E+01 -2.265993793958E+01 -7.865080828115E+00 -5.706726263837E+00 -4.899492759077E+00 -2.644384346297E+01 1.316741191700E+01 2.195026946580E+01 -3.483211754460E+01 7.860976850598E+01 1.174406123362E+01 -3.354871353604E+01 2.305649578137E+01 -9.018273451911E+01 -3.278393954994E+01 3.307047206600E+01 -4.118376827120E+01 3.836506127882E+01 -8.785711275084E+01 -5.849958385006E+00 -3.944992701975E+01 2.691629150477E+01 1.437632651130E+01 5.945596174256E+01 -2.177556554291E+01 5.489314967863E+01 3.197823254482E+01 -6.866844017271E+00 8.379861627163E+01 -4.450962343824E+01 -4.739643959907E+01 -8.954984713239E+01 5.601663065570E+01 1.288583726334E+01 1.430604906566E+01 6.612308330964E+01 -2.898174071937E+01 -1.104158621172E+01 1.047612228524E+02 1.968354393222E+01 -1.545730827708E+01 -7.308376176095E+00 -3.334648250215E+01 -4.640653315968E+01 -4.166716946609E+01 4.672093088083E+00 3.223735959963E+00 -2.583114737690E+01 8.375171050074E+00 2.214520098878E+01 2.193281691423E+03