#BIOSYM hessian 1
@Type: Hessian Update
@Units
 distance: 	A
 energy: 	Kcal/Mol
#header
@natom 8

#label
L1      L2      L3      L4      L5      L6      L7      L8

#element
Li Li Li Li Li Li Li Li

#matrix
24
 1.223820551965E+01
 7.071567437546E+00 3.794238123643E+01
 -2.416357048477E+00 -9.017274259733E+00 1.233631836305E+01
 -9.044880858497E+00 -9.418419774620E+00 3.436286516595E+00 5.043187586691E+01
 -1.153125538529E+01 -1.147593189004E+01 3.159438167663E+00 1.267499643921E+01 5.621762638931E+01
 2.960946864080E+00 1.479880759873E+00 -1.840562542517E+00 6.666100946662E-01 2.268504619289E+01 4.931981338118E+01
 2.144723559086E-01 4.445090663697E+00 -1.520308546110E+00 -1.185126417094E+01 -1.372271375099E+01 -2.002761869713E+01 4.123343649203E+01
 3.757965838707E+00 -1.195039776728E+01 9.445639384558E+00 2.312861047054E+00 -2.703979286746E+01 -2.471015754788E+01 1.741167040470E+01 6.619130916849E+01
 1.037572811357E-01 1.093216429358E+01 -9.414578248830E+00 -6.166912195197E+00 -1.594978865545E+01 -8.678491163663E+00 8.723060710518E+00 8.565105340638E+00 3.271517284828E+01
 -1.645966060081E+00 -1.605233589418E+00 5.462859950298E-01 -2.508432655020E+01 -6.572682890842E+00 4.507181349285E+00 -6.975087133814E+00 -6.856192551388E+00 -4.411404461096E+00 6.332519604281E+01
 9.099406090556E-01 -1.684711926953E+01 -4.722981162415E+00 6.673871398841E+00 8.970826632533E-01 -3.980026971820E+00 -3.895182269722E+00 3.313687814422E+00 1.498177609677E-02 4.604753385049E+00 3.296016034636E+01
 -9.476126925067E-01 -4.580073714606E+00 7.310273187881E-02 1.877321636555E+01 6.199293339362E+00 -6.837966966404E+00 8.008627056761E-02 1.163695558606E+00 -1.129256658884E+01 -1.183217401348E+01 1.867180405047E+00 3.270255235029E+01
 4.172218966886E-01 1.622579433372E+00 7.903576887259E-01 -1.390075300253E+00 -1.332732999364E+00 -6.646942226735E-01 3.376744029969E+00 6.430738132784E+00 4.065539365933E+00 -2.324591934574E+01 -1.365486241592E+01 -3.324954316765E+00 2.905609784038E+01
 -6.134697367231E-01 6.855781707727E-01 2.154060173168E-01 -1.548179475076E+01 -3.182693881174E+01 -2.661543324046E+01 1.399059131289E+01 2.471696770855E+01 9.406140718131E+00 2.965023733223E+00 -7.591800128357E+00 -7.211199720198E+00 1.047462413325E+01 3.887716925171E+01
 1.027230779011E+00 -3.132462015527E-01 1.369826345192E+00 -1.594196335634E+01 -3.204711462120E+01 -2.500228391134E+01 1.013226879582E+01 2.278152998618E+01 8.489660569546E+00 1.272107981189E+01 -1.166785149174E+00 -6.846764063591E+00 1.250216264666E+01 2.989271871175E+01 4.408792645035E+01
 -5.521832901540E-01 1.140554936119E-01 -9.128308941613E-01 -1.628410358665E+00 1.694354848252E+01 1.230985845187E+01 -1.231844665592E+01 -2.646873892545E+01 -9.714858481811E+00 3.974760579022E+00 -2.194430855272E+00 2.397179881886E+00 -1.225244827929E+01 -1.116468964715E+01 -2.127811620656E+01 4.351119272157E+01
 1.104314247504E+00 8.331463382353E-01 4.475102324442E-01 2.890258795448E+00 1.722022504617E+01 2.563250821962E+01 -2.361893132045E+01 -4.640161021241E+01 -1.358441557575E+01 1.540364845162E+00 -6.371051143207E+00 -1.529762157354E+00 -4.639048265213E+00 -2.459220062407E+01 -2.050195976252E+01 2.227859582589E+01 6.271315543192E+01
 -1.245367158517E+00 3.864035985481E-01 -8.068155884885E-01 -4.328343066473E-01 1.088111863200E+01 7.021987894646E+00 -7.205908925679E+00 -1.308572666895E+01 -5.879389846556E+00 9.073609663275E+00 4.692691035741E+00 -6.109389277499E+00 -1.373656988529E+01 -5.754779885891E+00 -1.986235843423E+01 9.058329025432E+00 1.152459284239E+01 3.466980586267E+01
 -1.265379223548E+00 -2.160117737455E-01 -3.539474499226E-01 6.029583136611E-01 6.770357887816E-01 1.994088360675E-01 -8.665721351921E+00 -3.842793330850E+00 6.807627717395E+00 -1.052869051987E+00 8.480281614621E-01 -1.511739402430E+00 1.477718704925E+00 2.571908597881E-01 1.529383810060E-01 -3.349472329512E+00 1.598124860854E+00 3.724328809104E+00 1.121435297141E+01
 -9.986911771634E-01 -1.005526719642E+00 9.837207190418E-01 -7.637217960024E-02 -2.419807035947E+00 5.632545407430E+00 -3.408932826050E+00 -9.167786054189E-01 4.026571381721E+00 6.641231408062E-01 -7.609092608130E-01 -5.238779462066E-01 1.430954358062E+00 -9.630222165487E-02 1.727835579641E+00 1.676437427894E+00 -3.487108527034E+00 -8.825602145635E+00 1.554257915266E+00 9.004762915268E+00
 9.399559369505E-01 1.666864960747E+00 -1.215072225405E+00 -5.133240219012E-01 3.150856501023E+00 -1.415941269746E+01 5.812265567397E+00 1.435884011370E+00 -4.614456187312E+00 -1.862444496991E+00 1.896370096897E-01 1.482982830994E+00 -2.283706713491E-01 6.947969010495E-01 -7.397151422427E-02 4.875736090990E+00 -3.766019829593E+00 -8.363861905118E+00 -9.691186653291E+00 -2.957982690360E+00 2.711417309168E+01
 -3.614903399714E-01 -2.013627890443E+00 4.305137383199E-01 -2.035876942008E+00 2.863804315973E+00 4.830732383516E-02 -5.014133565308E+00 7.254489384441E+00 5.931900631218E-01 -9.295788480015E+00 6.707881986510E+00 -3.634002092828E+00 2.560660453313E+00 -4.274759045325E-01 6.843991485068E-01 -1.738499238706E+01 -1.153678989195E+00 7.644127783232E-01 1.038411966975E+00 -8.417766592138E-01 6.673682481948E-01 3.049320929407E+01
 2.996281663613E-01 1.817869901047E+00 -5.114590988755E-01 4.245990244242E-01 -1.572463493552E+00 -1.243628196480E-01 8.798407785917E+00 -7.913385238897E+00 -3.410759278963E+00 5.259843927407E+00 -5.600051022133E+00 4.614744235349E+00 -3.322523769689E-01 -1.724733452133E-01 -3.729785431184E-01 -1.184777802046E+00 8.544369040034E-02 1.813025917980E-01 -8.758324815565E-01 -3.183305447582E-01 -4.140368639255E-01 -1.238961624354E+01 1.367339005311E+01
 -4.225539616772E-01 -5.547194368524E-01 -5.022188348812E-01 1.789209032736E-01 1.921150443716E+00 1.769160055605E-01 4.006154824611E+00 -5.595970064518E+00 -1.325351382624E+00 -8.742133847919E+00 3.105303056836E+00 -3.171951016827E+00 5.965293947574E-01 -6.276495016940E-01 -2.162035441701E+00 3.264702132355E+00 1.777546030761E+00 -6.699787054217E-01 6.725697620716E-01 -6.321030563172E-02 -1.703813931578E-01 4.458107925265E-01 3.754977738287E-02 7.825000769052E+00

