#BIOSYM hessian 1
@Type: Hessian Update
@Units
 distance: 	A
 energy: 	Kcal/Mol
#header
@natom 19

#label
L1      L2      L3      L4      L5      L6      L7      L8      L9      L10     L11     L12     L13     L14     L15     L16     L17     L18     L19

#element
Li Li Li Li Li Li Li Li Li Li Li Li Li Li Li Li Li Li Li

#matrix
57
 1.621247347366E+01
 5.683786727948E+00 9.970325379305E+00
 1.062254986615E+01 6.413985405939E+00 1.128723198320E+01
 -1.279676917087E+00 1.293034738672E+00 -9.664572813823E-01 1.475532063643E+01
 -2.547591437401E+00 -3.722860418647E+00 5.041805405318E-01 -8.764532066107E+00 1.087333334551E+01
 4.679059376826E-02 2.353099403662E+00 -2.590487927895E-01 2.351802788319E-01 -5.035382644941E-01 1.054022159589E+01
 -1.218534664928E+00 -4.877202316485E-01 4.445649778380E-01 1.262199067725E+00 2.107459698707E-01 1.886244211644E+00 1.213089767707E+01
 5.347877361605E-01 -3.025672948227E+00 -3.022282615548E-01 -6.171214607580E-01 1.641031518221E+00 -6.587370920059E-01 -6.282971174571E+00 1.894416201498E+01
 3.564562168379E-01 -9.760511094942E-01 3.625360750512E-01 1.785949169286E-02 2.863656178609E-01 -2.928493256407E+00 4.717171112241E+00 -1.067800480798E+00 8.269889136865E+00
 2.614696671001E+00 9.131540676920E-01 -2.009236467941E-01 -4.551927465080E+00 5.453101731059E-01 -1.959540842261E+00 -8.381014559992E+00 4.312620335046E-02 -1.696769618955E+00 1.472765295169E+01
 -1.007391881979E-01 1.984475152764E+00 5.925352680033E-01 2.673196959523E+00 -2.066738687432E+00 -2.518398254744E-01 2.007309655747E+00 6.603087083833E-01 -3.110722478948E-01 -4.045668317431E+00 2.442267311875E+01
 -6.703674193778E-01 2.510029956366E-01 -4.019144532503E-01 -1.217574550715E+00 -1.478499574096E+00 -1.536890847675E+00 2.043584710873E+00 7.745604384474E-01 -8.634147823256E-01 -6.732132072919E-01 -3.111226728745E+00 2.195863432262E+01
 -2.264625950705E-01 -1.779407937657E-01 4.647177026098E-01 -5.982799246093E-01 9.814786496163E-02 -7.202355662097E-03 -8.684264932376E-01 5.714931431366E-02 4.208027264821E-01 5.051366356035E-01 -4.902664167785E-01 4.960497401576E-01 1.027707282104E+01
 7.582741970548E-01 7.860581525737E-01 5.400028375359E-01 7.111990977964E-01 -7.559332056785E-01 -1.937558717015E+00 2.024221555159E+00 2.325425425869E-01 1.079304099624E+00 -1.434126323438E+00 1.515142772359E+00 -2.195038502685E-01 9.682398523122E-03 2.428312255558E+01
 2.214771429896E+00 -9.832862738486E-03 8.070099044475E-01 -2.131423846835E+00 7.142982493109E-01 4.929654900108E-01 -1.336736705533E-01 -1.191219961852E-01 -1.608514282657E-01 -6.697193307734E-01 -1.127006356658E+00 -1.473122153336E+00 -3.445456660341E+00 1.470822884674E+00 1.850216652347E+01
 9.932484260069E-01 -6.105475832867E-01 1.064806286640E+00 -1.898062468847E+00 5.179251439313E-01 -2.301156583347E+00 6.713492790416E-01 1.770025349108E+00 8.581066315912E-01 1.932202307425E+00 1.035708684415E+00 -6.636127540605E-01 -2.843193159085E+00 -6.024338224439E+00 4.757245291730E+00 1.732690834560E+01
 -2.493482017933E+00 5.221231594484E-01 1.807961196276E+00 -1.369538689554E+00 2.177424938832E-01 -1.516862195354E+00 8.732850385348E-01 2.240992480176E+00 -1.806144158782E-01 -7.853113167685E-01 -7.705732189169E-01 -1.191369262890E+00 -2.600747342384E+00 -7.361727997405E+00 5.172377202327E+00 1.117327607772E+01 3.789957390403E+01
 -2.226063612650E+00 1.498957516622E+00 -6.781849939509E-01 -1.991022187186E+00 -2.585255372592E+00 -2.329472342266E-01 -2.669772887828E+00 1.105761538567E+00 -1.329579880387E-01 3.140175058930E+00 -2.444485891733E-01 3.715583957031E+00 3.065874579451E+00 6.818122779543E+00 -3.821584716050E+00 2.758767834774E+00 -4.877836680901E+00 3.596782445264E+01
 -9.095872852347E-01 -1.773252972202E+00 -5.103951440779E-01 9.912656131837E-01 3.401672888460E-01 1.144754871430E+00 -6.026805402562E+00 6.207430528401E+00 -5.720760977246E+00 -1.922737764311E+00 -1.626447464444E+00 2.498634151608E+00 1.331327995756E-01 -9.728271886193E-01 1.168858089913E-01 -1.365663719961E+00 -2.852519466955E-01 -5.326275637352E-01 1.335295928985E+01
 -3.879459868951E-01 1.903538017001E-01 4.221388463414E-01 -5.423655570343E-01 3.618566764008E-01 -9.049215503695E-01 4.053149253330E+00 -4.719153857319E+00 4.256409712952E+00 -4.039251926128E-01 -9.776005131249E-01 9.683592016793E-01 -5.378251956059E-02 1.035979696386E+00 1.096619404761E+00 -1.088803016418E+00 -1.065120962059E+00 -8.078325983941E-01 -7.357337194860E+00 1.654795260942E+01
 1.077165982547E+00 8.779052480437E-01 9.458523318176E-02 4.003523699974E-01 -2.194670434870E-01 2.633995657335E-02 -4.064254010126E+00 7.229938541992E-01 -5.818110925943E+00 2.392930880656E+00 1.625038699473E+00 -7.137556109113E+00 -6.261332638865E-01 3.882645500613E-01 -4.341378381493E-01 -1.150440023801E+00 1.037753627784E-01 -6.202590924609E-01 -6.821039664885E-01 4.409978044726E+00 2.871848217303E+01
 -2.646818691833E+00 -2.927435373144E+00 -3.248749465751E+00 -2.288906217716E+00 8.787314558468E-01 1.559243839790E+00 5.241150149961E+00 -2.811299047636E+00 -7.805097014720E-01 -1.200032608690E+00 5.405163997814E+00 -1.922805821201E-02 4.725330739716E-02 1.000724886688E+00 -6.083600726597E-01 -1.482344602895E+00 -1.401751648101E+00 2.182341517236E+00 -5.450793229626E+00 4.890163883804E+00 5.070251025634E+00 1.607766042558E+01
 -2.436407772854E+00 -8.695165586057E+00 -7.237103882710E+00 1.771802799707E-03 -1.132944014167E+00 -1.181378545001E+00 -3.081067289027E+00 2.890363227841E+00 -2.137735304518E+00 6.069975495609E+00 -2.060706623017E+01 3.775677184476E+00 3.772558852380E-01 -3.715328330464E-01 -7.680113731526E-01 -1.278411915235E+00 -5.613711298514E-01 1.577233144250E+00 5.069235834355E+00 -5.789789883091E+00 -5.174100857536E+00 3.917169889177E+00 3.940638918428E+01
 -4.864151043418E+00 -8.489523637155E+00 -6.454394918276E+00 1.178297622871E+00 4.272457106505E-01 -4.495103915673E+00 -2.932562280445E+00 1.640828275127E+00 1.525198976444E+00 -3.538716595298E-01 4.663306551633E+00 -1.601973997557E+00 2.575298960630E-01 -8.883084736465E-01 -7.759869942557E-01 7.873531630330E-01 -1.115565246832E+00 -1.511248522076E+00 5.614168678994E+00 -5.506444056466E+00 -1.041661819771E+01 -7.183094656764E+00 9.215165570505E-01 2.379220004798E+01
 1.618660711480E+00 2.085349338585E+00 4.665973659652E-01 -1.827504374287E+00 -1.027683266641E+00 5.081352543039E-01 3.328601381600E-01 -8.109361919030E-01 3.990339256359E-01 -1.355094408203E+00 -5.713393034721E-01 -2.125140028569E+00 2.226466459529E-01 -2.500125367993E-01 2.060808658743E+00 -3.177670042548E+00 -5.454647106605E+00 -5.033821044905E+00 -5.382314114682E-01 1.791253584354E-01 -3.330489458463E-01 -1.732023213557E+00 6.423871821969E-01 2.136612157622E-01 2.626653796432E+01
 1.504151303545E+00 5.889924887470E-01 -1.204828890994E-01 -1.252958928273E+00 7.105346049629E-01 -1.110523112665E-01 6.135483614667E-01 -3.834339248160E-01 2.259641824045E+00 -2.773147271247E-02 -3.722436233173E-01 -1.170983919747E+00 -5.373590018926E-01 7.652102544298E-01 -6.173318226955E-01 -5.999236601464E+00 -8.323486327245E+00 -4.444611773041E+00 -7.566722385894E-01 1.026346284713E+00 1.185155464428E+00 -2.356412022840E-01 1.402541203944E-01 -7.822954357305E-01 2.661115562749E+00 1.361094526598E+01
 -2.994892556000E-01 7.249625150837E-01 5.216933635087E-01 2.266853273616E+00 -3.670347933798E-01 6.522276915606E-01 1.816443470307E+00 -2.228042675992E+00 -1.478500743878E+00 3.170248895683E-01 8.054241072945E-01 2.039474467705E+00 8.600480691927E-01 -6.996145548978E-01 -1.368006400697E+01 -2.864603900935E+00 -2.277576605695E+00 1.497482374411E+00 -2.697998542347E+00 -3.934004917486E-01 -4.295969061557E-01 8.522004983003E-01 -3.576722259531E-01 -2.233690372869E-02 1.314668769598E+00 7.876104076639E-01 1.748290690602E+01
 -3.045275879992E+00 -1.556119669573E+00 -3.214803292942E-01 3.022436093491E+00 1.739738837582E+00 -8.554591888888E-01 6.590396708571E-01 1.250281178993E+00 1.767475283240E+00 -2.591617805943E+00 -1.815984073418E+00 1.939955159908E+00 -3.393956697533E+00 -2.768225904779E+00 -6.429657152483E-01 -4.284421065340E+00 2.885565367016E+00 -6.876755228100E+00 5.883743189570E-01 -1.996987370792E+00 -2.320737158276E+00 -3.015602131598E+00 -8.321650473324E-01 8.517906265878E-01 1.281927972422E+00 -1.596304570537E+00 -3.822836267433E-01 1.315782853380E+01
 -9.476389695744E-01 2.774511661315E+00 3.531567601833E-01 -1.378980136401E+00 -5.681777814861E-02 -3.533109559499E-01 1.968593749489E+00 -1.552788932927E+01 -2.916939653946E+00 1.766418145537E+00 -2.668574876779E+00 -1.027926865814E-01 -1.794973617972E+00 -1.192393888083E+00 9.630945194395E-01 -4.123180823282E-01 -1.382971366897E+00 1.778223645250E+00 -2.237718699494E+00 -4.020346430871E-01 -1.616253714600E+00 1.636170082509E+00 1.198750231430E+00 -6.291832692978E-01 -4.173177852683E-01 -1.506849385795E+00 2.624053849664E+00 -1.832934766720E+00 1.775261400512E+01
 -3.507485456281E-01 -1.483000746345E+00 2.622834047949E-01 2.452696602683E+00 7.014230519427E-01 2.302414459952E+00 2.222766230296E+00 -2.692708626564E+00 3.075481978533E-01 1.755316556002E-02 7.426733749547E-01 -2.306994938791E+00 -4.020305189335E+00 -1.892671632558E-01 -1.596839320891E+00 -2.909625418764E+00 5.115906025411E+00 -1.298464989586E+01 1.574828467743E+00 -1.408441763103E+00 -1.849372077033E+00 -8.023582337822E-01 2.893827015936E+00 2.693386076975E+00 4.089964595444E+00 9.787652315481E-01 1.853008964782E+00 6.777413789562E+00 3.120484479321E-02 1.543580732052E+01
 -6.349941170871E-02 1.072618416267E+00 5.307000400296E-01 6.999533147502E-01 -5.958354517512E-01 1.558050130463E+00 1.662305549501E+00 -5.097987192186E-01 3.984543540185E-01 -1.846312337607E+00 2.615196608018E-01 -1.015568200944E+00 -1.486993349217E+00 8.085170607924E-01 -2.487718791646E+00 -7.710629529722E-01 3.559659411231E-01 1.139731492241E+00 -3.429429650214E-02 3.753918483381E-01 3.637914423424E-01 5.861134978246E-01 -1.509367065064E+00 -1.635984536683E+00 -2.511416880291E+00 -1.092157863715E+00 5.582027296023E-01 7.551722470622E-01 1.712238211935E-01 7.140435459794E-01 2.366854921641E+00
 -1.362189756672E+00 -6.085041994035E-01 4.517502270630E-01 1.052016819760E-01 6.007378015997E-01 -1.615439406378E+00 -5.620861319441E-01 -2.238007251422E+00 -1.347305174769E+00 4.846602145610E-01 -1.440676825271E-01 1.896908284930E+00 3.812863041571E+00 -2.707048197932E+00 1.806149491635E+00 3.999164906169E-01 1.394094352721E+00 -7.115825351665E-01 8.554528333942E-01 1.220280604384E-01 9.233780100994E-01 5.288059425000E-01 -1.519313081139E-01 -5.785798274109E-02 1.216841210809E+00 -2.769487238383E-01 -1.303732342175E-01 -7.703116049366E-01 2.629212249731E+00 -1.359938431126E+00 -2.198317929657E+00 5.605167639480E+00
 -1.079279418411E+00 -2.277728301513E-01 -8.573213510196E-01 2.534225899170E-02 2.224849642707E-01 1.621120642840E-01 5.032417478223E-01 1.615146245469E+00 8.076181155315E-01 -8.589491068103E-02 -7.906048901430E-01 1.254094174665E+00 -8.513445779718E-01 1.739154247178E-01 -1.228607122585E+00 2.017436969171E-01 -1.036722863957E+00 -7.973060592204E-01 7.670516366125E-01 -3.461578011206E-01 -1.299740160399E+00 -1.029296143903E+00 8.359010679050E-01 5.776712757766E-01 4.861659518814E-02 6.553529116566E-01 2.023765046800E-01 1.865351396510E-01 -1.516863642201E+00 6.479690471982E-01 6.247245598363E-01 -7.885081081879E-01 1.548959483625E+00
 5.906042299109E-01 1.024922675512E+00 1.065066241868E+00 -5.231924593623E-01 3.815617611568E-01 -3.177390559356E+00 2.167687266354E+00 -1.162332009558E+00 2.467591217490E+00 6.461205654678E-01 5.083678652011E-01 5.622539104014E-01 1.274999571133E-01 1.369954037451E+00 1.014874458009E-01 2.136171352927E+00 -1.204140107202E+00 6.257356101431E-01 -9.227358292492E-01 6.388315714646E-01 -1.294567947066E+00 -1.408738053494E+00 -8.884856752043E-01 1.562884597150E+00 2.551222010759E+00 5.439533491532E-01 -1.719349515846E+00 -1.275191431613E+00 -1.914690944615E-01 -1.377091807327E+00 3.105770499958E-01 1.286672176384E-01 1.664155890420E+00 1.216193031094E+01
 2.684122123817E-01 -1.456947294717E-01 -2.328148399761E+00 -4.741488505989E-01 -3.696201676390E-01 -1.007348068889E-01 -2.363129742252E-01 -8.255076107394E-01 2.692414561348E+00 7.075528913443E-01 2.955516308878E-01 -6.714643892768E-01 -2.926449316606E-01 1.990784253737E-01 1.354338127815E+00 2.633133794944E-01 2.246273961125E+00 -7.230625881987E-02 2.933912117253E-01 1.360351746194E+00 1.007623017917E+00 1.687365147883E-02 1.060961089795E-01 3.183376794435E-01 1.047081526578E+00 -8.057108369373E-01 -8.116871438745E-01 -5.154308168310E-01 -6.796626501909E-01 -3.038218066228E-01 2.513213103508E-01 4.293135609126E-01 1.585290434507E+00 3.639814761012E+00 1.894126284435E+01
 1.008780715534E+00 -2.030091603245E+00 8.789064665990E-01 -3.424937027085E+00 -3.328977858132E-01 -1.913610957103E+00 -1.377753221477E+00 7.000763215803E-01 8.632381749065E-01 2.959228575276E+00 -2.370606658738E+00 4.764855919485E-02 6.952589738556E-01 7.397825850655E-01 -3.152795685134E-01 1.153264240540E+00 1.699610420198E+00 3.094258999911E+00 5.726286181233E-01 3.871575453721E-01 7.490951487779E-01 6.443448492314E-01 1.392926029575E+00 6.892202430418E-01 -1.210569618079E+00 -7.808097069683E-01 -1.316033954230E+00 -5.590483496148E-01 1.494114927745E-01 1.454667556316E-01 5.264861809667E-01 2.279121364439E+00 2.946592975644E-01 -3.003013864682E+00 -6.150478512061E-01 1.384846200857E+01
 -5.291298456516E-02 8.588991495983E-01 5.418337664814E-01 8.285706680615E-01 -2.619663371849E-01 -8.406534030867E-01 1.140502623695E+00 -7.166224245330E-01 2.672931776387E+00 -7.746727001999E-01 1.082749525959E+00 -3.681913190519E-01 2.675596730378E-01 1.289815006705E+00 1.500936133230E+00 1.131664915308E+00 -3.746759820684E-01 -4.345122381285E-02 -1.780935726527E+00 1.184728601370E+00 -3.470251968312E-01 -8.007033187995E+00 -8.925343029646E+00 7.316567689941E+00 6.600079310485E-01 2.960080612156E-01 2.516832804420E-01 -2.428541123971E+00 4.308054949142E-01 -8.284330759591E-01 -2.426644430503E-01 -2.640905659176E-01 2.015947438530E+00 1.122334495467E-01 7.102931625620E-01 -1.223183382726E-01 2.201929900070E+01
 1.621801307961E+00 2.350142664573E-01 -6.368012294833E-01 -3.396599003765E-01 -1.319625401824E+00 1.207198662028E+00 8.687527399364E-02 -5.220487169510E-01 9.237065108663E-01 -1.916822273411E+00 1.729444581793E+00 1.630169853029E+00 -5.191321343433E-01 6.996474406066E-01 -2.847468085837E-01 1.078207965994E+00 -3.451424517942E-01 7.875031876058E-01 3.608758124514E-01 -5.990620130729E+00 -1.168095251483E+00 -7.881173860005E+00 -8.811726090813E+00 6.313627560130E+00 2.854102869062E-01 -1.416605696302E+00 -1.015100261065E-01 5.428238982689E+00 -1.829913520105E+00 -1.701103644569E-01 3.575879537933E-01 -2.648338987861E+00 -1.170762588176E+00 6.946080834796E-02 -1.230087291691E+00 -6.855069161118E-01 -9.440805325899E-01 2.230659832921E+01
 1.602804466916E+00 5.749227535267E-01 1.615916991892E+00 5.942108365785E-01 -4.736812817788E-02 -1.798121151981E+00 -8.294568561188E-01 1.687561143675E+00 -2.059752791453E+00 -4.423320517527E-01 1.379091081480E+00 8.020372661361E-01 -1.403949003367E-01 1.616406584780E-01 7.349449525610E-02 8.598495760753E-02 -9.024721058027E-01 2.615722495387E-01 1.387287192192E+00 -6.561005815759E-01 5.273310776161E-01 5.230811591070E+00 4.725717104351E+00 -5.002625215944E+00 -1.297060575227E+00 3.890380714397E-01 -1.068045467582E-01 -1.468101672669E+00 4.490593684995E-01 -1.875887291316E+00 -3.911107216871E-01 9.888434272118E-01 -7.775895799391E-01 7.617810297667E-02 -8.548158073414E-01 -1.375177705651E+00 -8.251365705719E+00 -6.220407895635E+00 7.040451079493E+00
 -1.326784157626E+01 -4.833291151676E+00 -7.585664523255E+00 2.186929095660E-01 3.052029228305E+00 2.723073980029E-01 -1.131619811602E+00 8.705931058103E-01 -9.583193309995E-01 7.515924011229E-01 -1.973211140810E+00 1.799473544148E+00 4.465744205584E-01 -1.316774447151E+00 -2.406981008487E+00 2.701861510387E-01 2.919975840363E+00 4.331889395547E+00 1.220611555640E+00 5.654530846857E-01 4.809767958289E-01 2.011871480710E+00 1.619871967579E-01 1.078909028616E+00 -2.193532358876E+01 3.246412677146E+00 -1.868806547444E+00 -2.830793939856E-02 8.683071010321E-01 -3.852480240760E+00 1.222016317804E+00 1.322015766626E+00 5.296004124308E-01 -6.979286410574E+00 -7.772295623467E+00 5.775669984913E+00 -3.843355981749E-01 -1.726882624121E+00 -6.250020531827E-01 3.682017869234E+01
 5.268360440929E-01 -1.116054980075E+00 3.169859512166E-01 -7.603689590560E-01 -1.694023412660E+00 -5.272252136033E-01 -1.472717393467E+00 1.700785902527E+00 -1.017612878658E+00 8.014881614944E-01 -1.468946158707E+00 1.976173880142E+00 5.798283786742E-01 -7.154091823364E-01 -3.817217014484E-01 1.468775001073E-01 -1.128301084734E+00 1.491069047127E+00 -7.385078241938E-02 -5.097064915819E-01 -1.102904230360E+00 1.502502635785E-01 1.876798344159E+00 4.031637383222E-01 3.745779383328E+00 4.810619441848E-01 1.655668028510E+00 7.547670928767E-02 -3.059601658425E-01 1.255117299360E-01 -1.220640159200E+00 1.490202655195E+00 -1.081387055924E+00 -7.568155643506E+00 -8.485408852964E+00 7.714047321398E+00 1.733093605374E-01 5.442159227158E-01 -4.289911919572E-01 3.884719333641E+00 1.180478607387E+01
 -8.793061975374E+00 9.891525998640E-01 -5.878028226814E+00 1.618007414884E+00 1.110350191664E+00 2.690578644576E-01 -4.879731081655E-01 -8.664004922179E-01 4.542388846807E-01 -8.673711851435E-01 1.459608087623E+00 -1.403694739369E+00 -1.757132981859E+00 -5.610994199702E-01 -3.489871324078E-01 -5.474721265139E-02 1.123567921139E+00 8.836322020465E-01 1.012117090790E+00 2.693114700234E-01 7.602051428019E-01 -8.328685285177E-01 -2.522507001102E+00 1.502518735534E-01 -2.824970619667E+00 9.696465989325E-01 -1.984073645561E+00 7.925142128365E-01 7.056465742233E-01 -1.966387752391E+00 1.039086460291E+00 -1.083428020539E+00 1.864666812363E+00 5.857609512418E+00 8.249096548772E+00 -7.251119531527E+00 -7.248192631976E-01 -1.055310626928E+00 8.256405869350E-02 4.725679318710E+00 -9.973779554235E+00 1.579898939406E+01
 4.348280649178E-02 2.739618051756E-01 -1.279061906816E+00 6.071522777281E-01 -6.319616956367E-01 1.055590106506E+00 -2.203383062075E+00 -4.875562005596E-01 -1.581314259329E+00 6.526183131936E-02 8.457688062624E-01 4.827946795486E-01 3.910004887740E-01 6.726110946190E-01 -9.399467805434E-01 5.407668568342E-02 1.623507762286E+00 2.834968602345E+00 2.866250114588E-01 -5.718924915628E-01 3.801835735566E-01 1.821535384754E+00 1.516448300485E+00 -2.031733704498E+00 -3.723093439996E+00 -2.600336245229E+00 2.377712076162E+00 -9.623779439338E-01 1.750981098389E+00 -1.030097751921E+00 -3.921662490212E-01 -7.879508649814E-01 -1.541902437823E+00 -8.823384799919E+00 3.160886453053E+00 -1.917477290447E+00 -9.997404393642E-01 -9.103606074024E-01 1.722507574140E+00 1.822266597228E+00 1.543099848101E+00 -5.099325647359E-01 1.217485698888E+01
 -1.628307110472E+00 -2.482212468758E-01 8.575565199771E-01 1.434843892962E+00 3.580856595667E-01 1.407783065244E+00 1.443153116333E+00 -3.283718737322E-01 -1.318957176304E+00 -6.663886911330E-01 1.263937311267E+00 3.723274538898E-01 -5.979561534152E-01 -2.077776077531E-01 -2.829647645369E+00 2.290292931174E+00 2.177581493363E+00 4.636279528994E+00 4.185701045411E-01 5.893065394750E-01 1.248953552385E-02 1.569355198474E-01 -2.915641609014E+00 1.027644063122E+00 -3.351833042306E+00 -6.429505667206E+00 1.833549206807E+00 1.171018384398E+00 5.427259653568E-01 1.678839844936E-01 2.043598843322E+00 -6.975334332772E-01 3.737344620274E-01 3.648432829258E+00 -1.885506210129E+00 -4.290286169678E-02 -3.161836222476E-01 1.579229752448E+00 -1.105874347699E+00 7.663293633437E-03 -2.323555537888E+00 7.981134951956E-01 -3.824554600597E+00 7.812972759924E+00
 2.450346279060E+00 5.713126864332E-01 -1.544181423360E+00 -2.011426941023E+00 -5.359634146979E-01 -1.831213618455E+00 1.688565033982E-02 1.832522947588E-01 3.081445923018E-02 5.141714925945E-01 -7.909288409299E-01 4.832759191965E-02 5.270177192047E-01 4.272765237170E-01 2.720242369366E+00 -5.915483494161E-01 -2.826154537493E-01 -2.292580201788E+01 -4.628921149386E-01 -3.768485163737E-01 6.566230099468E-01 -1.239328468046E-01 1.236370630690E+00 -1.775771257570E+00 1.558918619384E+00 3.461189509386E+00 -4.008632884924E+00 -7.851913891078E-01 -1.554121073593E+00 2.736296414823E+00 -8.829929939861E-01 -2.419807244120E-01 8.105494858215E-01 -1.112025898039E+00 3.915823620383E-01 8.651885147124E-01 -2.331873451386E+00 1.040496810594E+00 1.293798659710E+00 6.981960597195E-01 1.032670276294E+00 -4.638298818114E-01 3.782020237229E-01 -6.685059024961E+00 2.658679220300E+01
 -1.414318594059E-01 -2.760678363775E-01 -7.621920794324E-02 6.465749733358E-01 -9.130644285298E-02 -2.067056602471E+00 -2.816014653749E-01 1.537112949209E-01 9.980278678325E-02 -3.070956270901E-01 1.477674607149E-01 -7.543011821500E-02 -1.483726343860E+00 5.220205262249E+00 1.567197043366E+00 1.425966778803E-01 -5.798819128622E-01 1.887444368874E+00 4.081170512949E-01 -4.711785440428E-01 -2.174854950805E-02 -7.325267237820E-01 6.710734229293E-01 9.359971445723E-01 4.411955437244E-01 6.419218014885E-01 -2.375674818598E-01 -2.506775819833E-01 4.716624014435E-01 -1.284538840177E-01 -4.738672261854E-01 -3.084221473384E-01 -2.001453285455E-01 3.301087029480E-01 1.674443114473E-01 -4.233748399280E-01 -8.505674894572E-02 3.140178177347E-01 6.805198247637E-01 -4.579895477954E-01 -1.971611967288E-03 4.339119008374E-01 6.937131522346E-01 -7.718103512599E-01 -8.313686819455E-01 2.122145045778E+00
 2.276592510380E-01 4.966268058102E-01 -1.018870692145E-01 -4.180023287904E-01 -5.679313235055E-01 3.106615307168E+00 -1.363133415658E+00 -1.115570633753E-01 1.626571096481E-01 -3.760163931399E-01 -2.051493987460E-01 -6.007485909781E-01 3.835714498129E+00 -1.570715028022E+01 -6.562212705179E+00 5.542980088031E-01 -4.491573833054E-01 -1.704162813335E+00 2.169349787493E+00 1.601883577734E-01 4.049710814633E-01 -4.119865798038E-01 -4.884340834976E-01 9.824994146112E-03 -8.739478702927E-01 -3.130306656420E-01 -1.784362011430E-02 1.809526415196E-01 -1.350722935275E+00 -5.196615139865E-01 1.320007870959E+00 -2.317292356823E-01 2.094027093599E-01 -1.149969546217E+00 -7.302542473580E-01 -1.106477545166E+00 -9.168369990626E-01 -7.079081543304E-02 -5.572546597754E-01 8.248281649824E-01 -4.677477123981E-01 5.829431605893E-01 5.457788154968E-01 6.121260572225E-01 4.459144256199E-02 -4.943959228736E+00 1.716909606165E+01
 6.699899887411E-01 2.336177252647E-01 2.351982447871E-01 -4.372766906313E-01 -1.526688037401E-03 6.310630094516E-01 -9.220255920467E-01 -1.547406817772E-01 8.588532902740E-02 4.650946690284E-01 5.169202194442E-01 -2.031407765380E+00 1.362726690055E+00 -6.804781027532E+00 -2.562160387921E+00 4.879366161869E-01 3.568833679046E-01 -2.012977045857E+00 3.164543360718E-01 -5.331930244280E-02 8.274967559079E-01 -9.379459317095E-02 -4.259636748453E-01 5.465040656631E-01 4.648687839086E-01 -2.848122632003E-01 -7.767272569267E-02 -5.269109784580E-02 -3.318907601312E-01 1.198960448398E-01 4.672494135122E-01 -3.070792155733E-01 -3.528142992883E-02 3.330175225999E-01 -3.861637757432E-01 -9.765526110783E-01 -1.970915378311E-01 -3.531770418734E-01 -1.036526427735E-01 -1.338270417450E+00 -7.706746713523E-01 2.705335387419E-01 -3.594155126962E-01 3.735328341749E-01 6.704715007134E-01 -2.068398309960E+00 7.113123056868E+00 3.357965071991E+00
 6.162041003981E-01 1.441786037210E+00 2.387368332297E-01 1.310919605670E+00 -1.010600882098E+00 -1.948479882816E-01 -2.120237533584E+00 1.268585796598E+00 5.892988167966E-01 3.694452493133E+00 -6.897889472751E-01 1.048290189513E+00 2.589972197308E-01 1.181561714507E+00 1.354517471779E-01 7.710421373198E-01 -1.225285900559E+00 3.003547190884E-01 -1.992850983585E-01 2.543873891423E-01 4.918959788371E-01 -2.643662281617E+00 8.623091407406E-01 -8.827853249619E-01 2.835057013696E+00 5.622509811019E-01 -6.476515141846E-01 5.876987093681E-01 -2.582056141137E+00 2.109426071603E+00 -1.058796297914E+00 -3.707812050987E-01 4.443797320553E-01 1.179829712289E+00 5.647649599999E-01 -2.055374845180E+00 8.548061855556E-01 3.524226544088E-01 -8.380563762598E-01 -3.052850979078E+00 -6.923150915391E-01 1.110385088236E+00 -4.558844237600E-02 -6.577400883801E-01 -4.345819313380E-01 4.994623467241E-01 -5.540041054186E-01 -2.496789717441E-01 4.130175327506E+00
 5.758282232262E-01 -4.054626095791E+00 -2.394857622561E+00 8.996028124149E-01 2.219237110347E+00 -5.606057365467E-01 1.932957120872E-03 -1.324554557863E+00 -7.647488764723E-01 -1.511656520822E+00 -3.080789852920E-01 -2.779752180674E-01 -5.131619818843E-01 -7.135221774311E-01 -2.618242918059E-01 -3.624650061496E-01 -2.361755779027E+01 -4.564119330379E-01 1.003574408511E+00 -4.196576526906E-01 -1.183815846097E+00 1.414937899126E+00 5.434612942930E-01 3.400213081324E+00 -2.032478837174E+00 -6.402963210822E-01 -1.302196371137E-01 -1.335306094546E+00 3.837368235594E+00 -6.645885168291E+00 1.865032542336E-02 2.572503727400E-01 7.779724599687E-01 -4.291358999967E-01 3.977450533020E-01 6.909516129011E-01 6.647998271884E-01 -1.108885067707E-01 1.582113422302E+00 1.241248570283E+00 4.955291734209E-01 -7.861690792415E-01 6.899763847297E-01 5.280132379954E-01 3.139736019667E+00 -3.012389521639E-01 1.294560814134E+00 3.302652459633E-01 -2.630260621391E+00 2.678686668612E+01
 1.161893027178E+00 9.499103231447E-01 3.098842594897E-01 -8.640191654521E-02 -3.367918863034E-01 1.973017211129E+00 -2.780772759875E+00 1.845300886720E+00 -2.957259928396E+00 2.387845004913E+00 8.992730360894E-01 5.052405377992E-01 7.973123308170E-01 2.986746312254E-02 1.624320646326E-01 -1.463891705599E+00 -2.007877791552E+00 3.146923918781E-01 4.452835550770E-01 -1.629915485002E-02 -9.455705725213E-01 6.850326390331E-01 5.718091298413E-01 -1.843536416240E-01 1.362878758738E+00 -1.642254630150E+00 1.666253983837E+00 -1.294833014852E+00 -3.237787611729E-01 -8.911777341392E-01 -7.874197617315E-01 -1.077789033860E-01 -6.402048969219E-01 -1.383208101919E+00 -2.228896674614E+00 -2.047341029261E+00 -1.001189884793E+00 -1.469756516771E+00 1.051730979597E+00 -2.410362241976E+00 8.785155343867E-01 -1.464165967893E+00 1.116853532810E+00 7.913126071196E-01 -4.269879795441E-01 -3.574410745617E-01 -3.796847535350E-01 5.993011094862E-02 5.272010558168E-01 8.186404579996E-01 3.856581346677E+00
 3.910612574755E-01 1.627214501074E-01 -1.668081175947E-01 -3.458848814247E-01 -5.228367895854E-01 4.695966839770E-01 -2.610900574890E+00 1.041279525017E+00 -2.234255088942E+00 -9.238998028138E-02 2.871473112362E-01 5.746422065400E-01 -7.571790517753E-01 -1.619589200359E+00 -1.109430481251E+00 9.247917851160E-01 4.130423566577E-01 1.598182154144E-01 3.320103856874E+00 9.297276268975E-02 3.392526829051E-01 -4.776580568461E-01 -2.000039850986E-01 -1.186106303826E-01 4.790305348697E-01 1.143504624505E+00 8.305064170138E-01 1.167249268127E-01 -1.213916640799E+00 -3.954666274519E-01 -2.768024271822E-01 -3.664213381640E-01 -1.404904285902E+00 -4.444747175651E-01 -1.828970241309E+00 -5.335775791997E-01 -1.077325268398E+01 5.492649293404E+00 2.569965757689E+00 9.981030387965E-01 9.856985749558E-01 6.102692828454E-01 3.622365621833E-01 2.151235450844E-01 1.148919496414E+00 5.104767898275E-01 1.245597307225E+00 2.355340417067E-01 -3.022035037975E-02 -1.266843091412E+00 7.968543257461E-01 9.916950401821E+00
 -3.539549316757E-02 1.072593606655E-01 4.923199405933E-01 2.633647907622E-01 4.904364987796E-01 6.404106840106E-01 1.102177021292E+00 1.202038276075E+00 8.690576239025E-01 1.955274888070E-02 -1.046379987084E+00 -5.212708133291E-01 -3.104906895650E-01 9.622299088777E-02 6.136164799522E-01 3.918604268816E-01 1.226723555401E+00 -6.380073103164E-01 -1.508148267727E+00 1.494000688559E-01 -5.216476084838E-01 -5.786395020982E-01 4.396852180905E-01 -4.430009116420E-01 5.294802095940E-01 -1.310633285537E-01 3.714892079100E-01 -1.960711010606E-02 -9.527747777969E-01 7.367267988886E-01 2.590983080868E-02 -3.651292745601E-01 7.755889339571E-01 -2.043485144787E-01 -6.005551987760E-01 -3.810938820830E-01 5.241680719774E+00 -2.791713096903E+00 -1.392867469170E+00 -5.062383351012E-01 2.195435162583E-01 -7.832826241379E-01 -5.480707747092E-01 5.648333841634E-02 -1.101238262746E+00 -2.659361168544E-01 -6.938816521100E-01 -1.605210951038E-01 4.635180393189E-01 -9.479240046120E-01 1.769867273019E-01 -4.110102578951E+00 2.427339192855E+00
 -2.210982525970E+00 -1.093861097751E+00 -1.697802845345E+00 1.909170345407E-01 5.967030286145E-01 -1.852611106025E-02 7.572182253261E-01 -1.952312346530E+00 1.683463075453E+00 2.386742264756E-03 -7.118763962120E-01 -9.154905476233E-01 2.470151262963E+00 -1.033729272309E+00 1.872206065565E+00 -2.420004634097E+00 -2.088222224555E+00 3.019912159664E+00 -3.554754942600E+00 -8.787976683824E-01 -2.104631937039E+00 1.395798106637E+00 4.308645826129E-01 3.411282650377E-01 -3.414435504541E-03 -9.862736728971E-01 -1.160857327425E+00 2.466757948555E+00 1.952985890645E+00 -2.598534691476E+00 -9.097848556859E-01 1.588708318713E+00 -9.131632127481E-01 -1.518805123495E+00 4.480569530144E-01 -1.874048752928E-01 1.304484467603E+00 9.776317674676E-01 -9.531298376533E-01 1.274373940223E+00 5.412408168577E-01 -1.019539973348E-01 1.238747555496E+00 -8.371640325169E-01 -2.828468688993E+00 -4.940271482879E-01 -1.451461734546E-01 -9.538305709057E-02 -7.187885735363E-01 2.486788188738E+00 1.759066959078E-01 -3.202601781168E+00 7.982101503423E-01 5.930202055553E+00