#BIOSYM hessian 1
@Type: Hessian Update
@Units
 distance: 	A
 energy: 	Kcal/Mol
#header
@natom 19

#label
L1      L2      L3      L4      L5      L6      L7      L8      L9      L10     L11     L12     L13     L14     L15     L16     L17     L18     L19

#element
Li Li Li Li Li Li Li Li Li Li Li Li Li Li Li Li Li Li Li

#matrix
57
 1.277914188252E+01
 6.283537060084E+00 1.908990047244E+01
 1.267379016618E+00 9.568504009877E-01 2.762682537831E+01
 -1.154462077848E+00 -1.269130817946E+00 4.093469697986E-01 3.765222426052E+01
 -4.141685931465E+00 -1.196293530019E+01 -1.123557030789E+00 -6.131349599254E+00 2.949366459926E+01
 -4.690473190286E-01 -3.716366172458E+00 -1.305337691537E+00 2.419194605213E+01 -1.298586198429E+01 5.504433126704E+01
 -5.666661722592E-01 -3.307281800716E+00 -3.655592674468E+00 -5.053201884283E+00 -1.638776595479E+00 6.023964686129E-01 1.859765635977E+01
 -7.019229751513E-01 4.020493060853E-01 3.148765679786E+00 -4.495863335714E+00 -1.600825795463E+00 -2.656203981241E+00 -1.676748528346E+00 1.121281093043E+01
 8.922365784674E-01 -4.086627250413E-01 4.806925287218E-01 -2.558696376688E-01 -1.033839366063E+00 -5.515720852257E-01 8.755440782517E+00 -4.751175067206E+00 1.379184772456E+01
 5.043820841155E-01 1.844942526392E-01 -1.705580918593E+00 -3.330689779834E+00 2.698658128912E+00 -5.342945738588E+00 -9.286832992830E-01 4.257355178076E+00 -3.750093518917E+00 5.203552680565E+01
 -1.167190733579E-01 1.185668226522E+00 -6.714076641961E-01 3.034563986759E+00 -2.696151775188E+00 -7.861420754286E-01 9.722870091593E-01 1.026001293549E-01 -8.001352221136E-01 5.842185183707E+00 2.138905607845E+01
 2.782080467729E-01 1.216667444117E+00 1.407919433466E+00 2.731063880393E+00 -2.536224131513E+00 3.224868242246E+00 -2.108282484792E+00 -5.076614720242E+00 3.776218064803E+00 -4.760740615372E+01 -9.670814229522E+00 8.472675568380E+01
 -6.440070253713E-01 5.265974948149E-01 -5.364798313212E-03 1.610785861423E+00 8.365794722964E+00 -3.445261868959E+00 -2.088087375320E+00 -9.635673076372E+00 2.962678646122E+00 -7.681524985571E+01 -1.383515957898E+01 1.022631927492E+02 2.310666392333E+02
 -2.800411566729E+00 -1.094444417290E+00 -1.110915422013E+00 3.012759213622E+00 -2.052915521723E+00 1.118023246687E+01 -2.407608765263E+00 -2.732918183319E+00 2.342390397409E+00 -1.341920043347E+01 -1.708497289559E+01 1.566876066790E+01 4.214954638204E-01 4.274784206662E+01
 1.875726309751E-01 -2.935284437526E+00 -4.718273969487E+00 2.538703697427E+00 5.846065715465E+00 -2.824518551895E+00 -9.466506371453E-01 -1.644970990737E+00 -2.148006257475E+00 -4.670829255405E-01 1.642330676912E+00 -8.369286755926E+00 3.767164038392E+01 -2.996830137798E+01 6.750956377197E+01
 2.213863252266E+00 1.740886897002E+00 1.324325818809E+00 3.206810860564E+00 -2.587340075635E+00 3.857047679951E+00 4.149387920365E-01 6.413643989201E-01 -2.781367642526E-01 -1.727826065448E+00 -2.186000401466E+00 6.449354883693E-01 -2.334540817577E+00 2.414944973797E+00 -5.396536121275E-01 1.923605783246E+01
 -1.874036762826E-01 6.537283198852E-01 -8.191749943861E-01 2.703651702190E+00 -3.007796409248E+00 1.165279691608E+00 2.388738513659E+00 -2.362916881026E+00 -1.012861266335E+00 -1.187273278193E+00 1.034648757262E+00 9.834512822718E-01 1.356876359763E+00 -3.636105818289E+00 1.521676780523E+00 -2.084063610656E+00 2.294792862298E+01
 8.430281108732E-01 -1.200059130183E+00 -1.949417494211E+00 1.466920742438E+00 -1.539723975742E+00 -1.187048116839E+01 1.920154032192E+00 7.891134597115E-01 -1.132229194027E+00 -7.065677105932E-02 3.686876902866E+00 2.651726691210E+00 -1.537684049401E+00 -3.532070050872E+00 -2.879281655217E+00 2.935773703330E-02 3.394164202701E+00 2.079062583002E+01
 -3.877689789057E+00 -2.778320129717E+00 5.639021443140E+00 -3.912899154110E-01 5.000798619262E-01 -4.480500419389E-01 7.294176583203E-01 2.335717969632E+00 -9.943861551437E-01 -2.350390069557E-01 1.504591952599E+00 -5.146930241921E+00 -6.800084457987E+00 -1.724016420729E+00 -2.614047194073E+00 -1.579567157313E+00 8.407680527840E-01 -1.779565755103E-01 2.499807147465E+01
 -4.106087691463E+00 8.132897166925E-01 2.203135504537E+00 -4.028147722987E-01 2.264151553247E+00 -2.318600046664E-01 1.244380547301E+00 -5.755508558702E+00 -6.534554448109E-01 -1.515660146097E+00 -1.129971269966E+00 2.795788871318E+00 3.506831717380E+00 3.801814143661E+00 -6.970194651860E-02 -3.822818774220E+00 5.788621849620E-01 -2.545936545006E+00 1.302474300722E+01 2.668175073133E+01
 6.407441992312E+00 4.233797543203E+00 -6.564266194448E+00 -1.737815639396E+00 3.098462767365E+00 -1.758931105020E+00 3.049513186450E-01 1.275993879442E+00 -7.909377701995E-01 -4.254534419541E-01 1.855466021694E+00 -9.495733232244E+00 -7.206811298049E+00 -2.549563183404E+00 -7.460654960077E-01 1.164336475578E-01 -9.833561651009E-01 -6.964473810115E-01 3.430362316111E-01 3.532298047916E-01 2.111630758468E+01
 -1.138528218142E+00 9.947010841201E-01 2.091549834075E+00 -1.846786421781E+00 1.688475786884E+00 -4.314516461994E+00 2.555148574690E-01 8.357950811468E-02 -1.488584193136E+00 -1.352328284652E+00 2.222436481419E+00 -3.837304447674E+00 -6.364284067668E+00 -1.651729826221E+00 3.570691476201E+00 -3.343634502616E+00 -1.671167128160E+00 2.524959877355E+00 6.705960316860E-01 6.515939487636E-02 -3.661004878348E-01 2.159326962304E+01
 1.589770073244E+00 -1.882433076091E+00 2.908398768876E-01 -3.464846218493E-01 -1.365616492944E+00 2.565165345303E+00 -5.001294434790E-02 6.510482641402E-01 5.918376577834E-01 1.588031716931E+00 -3.714561254017E+00 4.954654677402E+00 -1.726435630745E+00 -2.642019345061E+00 -1.009406838431E+00 -3.742911797475E-01 -4.704755526585E+00 2.864388372354E+00 7.328534406992E-01 -5.383192293799E+00 -3.806213881703E+00 -1.283642738113E+00 1.639308240702E+01
 4.199344815338E-01 -1.955682208983E+00 -1.157016382395E+00 2.193218985773E+00 -2.196160400179E+00 2.212741645611E+00 -7.283582903550E-01 2.009564736231E+00 -7.674125973890E+00 1.439587810760E+01 4.608714378685E+00 -1.780250614706E+01 -2.378406511215E+01 -8.769896757608E+00 5.052796992989E+00 4.392723898897E+00 1.748130589852E+00 2.008666830868E+00 1.084344793908E+00 -4.114114262773E+00 -3.932390525607E+00 -1.238292243939E+01 4.219654728126E+00 3.328327266479E+01
 3.170760905033E-01 -1.270456377832E+00 -1.782951912999E+00 6.376217794256E+00 1.455374839662E+00 4.461223637762E+00 -5.849700081367E+00 2.747512592470E+00 -2.801641800194E+00 1.884351526509E+00 1.281624440843E-01 8.585836552268E-01 1.284070674015E+01 -1.059796007531E+00 4.510216739070E+00 4.149401286926E-01 3.802906313539E-01 -7.272416154851E-01 -1.112349633243E+01 -9.546535456980E+00 -3.321999284622E+00 -1.595949570483E+01 9.217824841511E-01 1.390941940381E+01 3.389194383519E+01
 1.104993145716E+00 -2.617054943894E+00 -5.705039898626E+00 -3.114449204723E+00 -3.166355424100E+00 3.805365939828E+00 2.006792410559E+00 -1.678679329278E+00 6.590760170737E+00 -4.019267990319E+00 -3.662293717385E+00 2.558545081534E+00 3.012150128019E+00 4.836906258622E+00 -5.635904884612E+00 3.939475110875E+00 -7.511291656016E+00 -2.443314495609E+00 -1.428163468341E+01 -1.724356552532E+01 -3.111620871122E+00 -1.933901174899E+00 3.684728963712E+00 -3.228822257720E+00 3.683072309217E+00 3.425472921947E+01
 -4.490519530254E+00 3.737406824554E+00 -1.314797351342E+01 1.664965383211E+00 -1.598045886819E+00 -4.863614670832E+00 -2.728263795977E+00 8.474534943872E-01 -3.758495278611E+00 4.121314106703E+00 4.334840128901E-01 -1.098854570144E+01 1.713241068872E+00 2.024446294808E+00 2.231429781318E+00 -3.282192858829E+00 -7.821717434892E-03 -1.405613610530E+00 -2.173529360095E+00 1.213414177320E+00 4.749878352778E-01 1.188170928415E+01 -7.923332406960E+00 -1.755928170410E+01 -7.078699056829E+00 2.884889401751E+00 4.284650565055E+01
 -1.876733166260E-02 2.988198269290E-01 -2.325190421113E+00 -7.463243974931E-01 -1.423432756180E+00 -9.439147691927E-01 1.303706104275E-01 3.048175707464E-01 1.110431174786E+00 -8.326562980146E+00 4.218549341507E-01 -4.189604660047E+00 -3.136639626005E+00 8.874132320550E-01 7.617799331976E-01 -2.051355505485E-01 1.024335877039E+00 7.348262508656E-02 -2.319968986024E+00 -2.205439651589E+00 2.433145136618E+00 -2.762360528372E+00 1.190258328033E+00 -9.881188338466E-01 2.654864526319E-01 2.494267609476E+00 -2.018338438368E-01 2.290271792144E+01
 -1.227046757189E+00 4.699638416844E-01 -2.864495415760E-02 -3.064979124589E+00 1.680538104915E-01 -3.240842146811E+00 5.860885637441E-01 -4.420453755544E-01 -1.738559591910E-01 2.420608036418E+00 -1.600254715366E+00 -3.068381705300E+00 1.773705554336E+00 -2.957182988834E+00 2.463615385124E+00 -2.986622536838E-01 2.614386440072E+00 1.462599867392E+00 -9.833202730835E-01 -8.707069789232E-01 1.683231004490E-02 -3.151819199704E+00 -9.134339194085E-01 4.356030350327E-01 8.257395564727E-02 -2.402911605629E+00 1.423310454717E-01 2.342569676590E+00 1.460357238647E+01
 1.613469199675E-01 4.044972550148E-02 1.017058310744E+00 -2.197260845150E+00 9.203831110029E-01 -1.156542267952E+00 -4.905788341153E-01 1.116247187399E+00 -1.198816006617E-01 2.784734277604E-01 -5.671068942822E-01 -2.202277942337E+00 -2.491294331971E+00 -7.737599373787E-01 -5.144464497288E-01 -1.060782449131E-01 -5.655123302534E-01 -7.750132646477E-01 6.891805312372E-02 7.450326575931E-01 -9.992916486453E-02 3.320823410414E+00 8.542678422018E-01 -1.282838307305E+00 -1.370680936129E+00 -2.617010110567E+00 8.154649083654E-01 3.544207034656E+00 -2.462999229935E+00 1.383038540448E+01
 5.954783381130E-01 -2.099698538493E-01 5.285006287089E-01 -1.018211625788E+00 2.948787930926E-01 -1.140880495978E+00 -1.195796079010E+00 1.826591131663E+00 -1.110096644838E+00 -1.054219365719E+00 -2.768827186771E-01 2.608138674749E+00 -4.768860663864E+00 -1.897467210993E+00 8.496063762094E-01 7.477559704199E-01 -1.463134003124E-01 -2.277242931478E-01 -7.217981921284E-01 -1.625041874702E+00 9.716690566176E-01 -2.726470738653E+00 4.929654966867E-01 2.962977118565E+00 6.551418224570E+00 -5.163533602441E-01 -5.908180307572E+00 -3.642605506809E+00 4.940988620750E-01 7.252630394661E-02 1.754028164338E+01
 7.222170595050E-01 1.966309355254E-01 -6.053778902884E-02 1.350661543125E-01 6.636688661248E-02 4.606082006299E-01 2.110706887890E+00 -2.613198633775E-01 2.041577740517E-01 9.910000848103E-01 6.952521498564E-01 -4.757573199204E-01 2.655321328031E+00 -7.722130399622E-01 1.942275979404E-01 -5.670281481454E-01 -5.848095691891E-01 6.128935136274E-01 5.025674986164E-01 2.581977326554E+00 -9.338248045025E-02 2.474644476524E+00 -5.334956265792E-01 -2.075002744564E+00 -3.100595037038E+00 -1.285037843986E+00 3.479726673292E+00 -1.399253071416E+00 -1.904311393028E+00 -2.627278741783E-01 -5.882926335204E+00 4.658639757506E+00
 -5.888630983976E-02 -8.991066261412E-01 -5.245483077220E-01 5.213349280515E-01 5.071202230410E-01 -1.032941202784E+00 9.389822829985E-01 3.802123957306E-01 7.123164484018E-01 -1.053080110710E+00 7.726780264708E-02 2.287184839961E+00 5.614755402663E-01 -9.784647563191E-01 -2.199115644046E+00 1.444736077868E-01 1.867690081602E+00 1.118441155247E+00 6.406246570524E-01 -4.966430239838E-01 3.306147437347E-02 -8.891546408117E-01 -5.198679124617E-02 -2.316688836294E-01 -9.537379745779E-01 1.012689194371E-01 -3.885949890094E-02 2.193474655852E-01 1.032508275029E+00 -2.554379591035E+00 5.585295442662E+00 4.862501330687E-01 1.094904148793E+01
 -1.482276158299E+00 9.420348888835E-01 -1.042975701069E+00 -2.942318928910E-01 1.981000997871E+00 1.226595116030E+00 -8.116263207628E-02 -8.676701818905E-01 -6.044566763401E-01 -1.666283822553E+00 1.274016075176E+00 -8.711292063734E-01 5.922147334539E+00 -4.094708148481E-01 -2.201096916482E-01 -6.490660616084E-01 -1.274056935062E-01 -2.622453387091E-02 6.567092046353E-01 8.697458381955E-01 2.004253816875E+00 2.369737410887E+00 2.576547794624E-01 -2.041197234882E+00 -2.316796351311E+00 -2.733049481702E+00 2.349049733521E+00 2.501721824603E-01 1.951367161212E+00 1.340726715265E+00 -2.001092561492E+00 6.916266341087E-02 -1.600554549416E+00 7.116001748403E+00
 -1.713971523776E+00 -9.099731438306E-01 -1.028761060739E+00 1.308051158563E-01 3.309646915202E-01 4.593718133516E+00 -9.878055795347E-03 3.008486524390E-01 -5.277928420184E-01 1.710592435019E-01 1.648910470420E+00 -4.278934301398E+00 -3.986870919479E-01 9.928351972044E-01 -1.556986391732E+00 1.656451638744E+00 -1.867712712892E+00 -3.297606429224E-01 -2.522598114904E+00 -2.885785817927E+00 2.155067782218E+00 5.375668929422E-01 -2.000773535254E+00 -1.088012779458E+00 2.580415291965E+00 2.121095898422E+00 1.468937415373E+00 -7.416513761245E-01 1.891122620869E+00 6.476377208381E-01 1.896382414381E+00 -1.193542833041E+00 -1.839623394298E+00 4.220147648064E+00 8.409858188302E+00
 -8.572794746285E-02 6.285531531695E-01 1.493514822524E+00 -7.377217799950E-01 5.419132655943E-01 -2.631774361940E+00 1.728064043758E-01 5.292195541272E-01 -1.258543270342E-01 -3.386964738197E-02 -1.939842998171E+00 1.425131070712E+00 -3.266054762841E+00 1.069493877572E+00 1.204238746211E+00 -1.745651496900E+00 1.617948593796E+00 3.100569999790E-01 1.251320620914E-01 7.789100161097E-01 -1.097480492450E+00 2.220162818218E+00 5.630645768420E-02 -8.726896488669E-01 -6.424793124134E-01 -1.746789091889E+00 -8.140857933465E-01 1.570430423247E+00 -7.158032655747E-02 2.201230631079E-01 -6.786167266541E-01 -8.344869521593E-01 -1.572268411136E+00 -3.379318874371E+00 -4.377380861635E+00 7.430898779138E+00
 2.375414684189E+00 -1.656744520797E+00 1.625006691659E+00 -2.029144335483E+01 1.134075271650E+01 -2.910811782270E+01 -2.328277472037E+00 8.972275476439E-01 -2.130093092383E+00 1.298629825100E+01 2.742521902120E-01 -1.299239925279E+01 6.604870392471E+00 -2.047159500391E+01 3.572994811540E+01 -9.387321217425E+00 3.593271103418E+00 2.577868093448E+00 -1.706961815942E+00 7.186688824158E-01 9.634917082631E-01 4.350119217534E+00 -3.411933605684E+00 4.584699571512E+00 -5.271979454415E+00 -3.056477333481E+00 -4.658434704917E+00 -2.146731249034E+00 1.027941097978E+00 -1.194120343934E+00 -1.243103344722E+00 2.272125422934E+00 1.942714704382E-01 -5.348847047108E+00 -3.001510051944E+00 1.900030335715E+00 6.920659268015E+01
 1.316519245675E+00 -1.977767391340E+00 5.551013522616E-01 7.539329371610E+00 -3.789897817892E+00 7.173507685987E+00 3.293758100310E+00 1.178183882550E+00 -2.803994466218E+00 2.202497677446E+01 6.865101479418E+00 -3.818076360062E+01 -3.897976520110E+01 -1.796227852796E+01 2.507653290436E+01 3.310507105405E+00 -2.777198270041E+00 -2.501643046655E-01 -5.602569695870E-01 -3.497083827974E+00 6.832145414122E-01 5.860647874536E+00 -1.139515224783E+00 1.381874075895E+01 -7.193108246032E+00 2.915427733666E+00 2.010400813219E+00 2.294103878954E+00 2.686539033936E+00 -1.756748173704E+00 1.991212267614E+00 -9.665674927446E-01 2.064549825306E+00 1.155421843800E+00 4.311031707127E-01 -1.812311022184E+00 7.205181588777E+00 5.721405416718E+01
 -2.421615148263E+00 9.595894692093E-01 4.408539156154E+00 -2.366502223464E+01 1.048840531021E+01 -2.558512139140E+01 -3.136463838784E+00 -1.437321877682E+00 4.511115446676E+00 -3.946121334906E+01 -1.493559612588E+01 7.008808625280E+01 5.259952213331E+01 3.506421127336E+01 -5.970133552359E+01 -3.083522638310E+00 -4.745224352210E+00 -6.715599626928E-01 1.200162545194E+00 -3.081422629382E-02 -1.164537824909E+00 -2.528825071947E+00 5.257521620965E+00 -2.051492118478E+01 -8.735643062943E+00 1.370112382811E+01 -1.548590468755E+01 1.963739024611E+00 -1.545413692454E+00 -3.961830955640E+00 -2.350409629800E+00 -2.475571735476E-01 2.261415570807E+00 -2.772670044631E-01 -2.587661521385E+00 5.273712955771E-01 -1.715029885685E+01 -5.061581079695E+01 1.857066150947E+02
 -1.738189733673E+00 4.232554296517E+00 -2.400992473602E+00 2.586937586467E+00 -4.219629949271E+00 6.512893660479E+00 -4.634271781376E+00 -2.069056321996E+00 1.294390583539E+00 -3.766183805128E+01 -7.693910508668E+00 5.585330620065E+01 7.215270906365E+01 1.279917630498E+01 -5.790230566756E+00 1.313794827357E+00 -4.060666869532E-01 -6.744896527561E-01 -7.311314620584E+00 2.678509283650E+00 -4.216762869593E+00 -2.944140071283E+00 1.033757146903E+00 -1.448546332987E+01 2.327281903651E+00 9.828092797618E+00 -1.567506625380E+00 -5.362237680560E+00 -1.061504500533E+00 -2.737184628948E+00 4.334644281129E-01 4.147812161318E-01 3.527757349471E-01 2.838985343741E-01 -3.603258087017E+00 5.711189656284E-02 -1.333599364979E+01 -2.327628160813E+01 4.994033279305E+01 6.299120496362E+01
 4.525279236258E+00 -1.865415204375E+00 2.356659909305E+00 -2.334746220940E+00 1.951774556484E+00 -4.954694224610E+00 -8.226162330463E-01 -8.324689336157E-01 1.480003208909E+00 -7.861327180557E+00 -3.118407672044E+00 1.675483847645E+01 2.555230760176E+01 1.597252068631E+00 2.561182039963E+00 -2.217454014119E+00 8.194965668059E-01 8.967075425231E-01 -5.783097894267E-01 1.598432138058E+00 -3.706046549370E-01 -3.260974177680E+00 -1.418470192900E+00 -3.993481267095E+00 8.649525851854E+00 -5.753107381061E+00 -4.911412867381E+00 -2.997124159782E+00 -2.960087537905E-01 3.020481444173E+00 1.496298891922E+00 6.315558651322E-01 -5.864664584914E-01 2.096799046591E-01 6.952972944386E-01 -3.056361576426E-01 1.055695376854E+00 -1.438038895133E+01 1.454490967033E+01 4.145916984309E+00 2.244760235502E+01
 -3.035641665483E+00 1.975323331133E+00 -4.145433127741E+00 -6.115894065746E+00 5.437113976189E+00 -1.138331430506E+01 5.168923759203E-01 6.332035960783E+00 -4.808128416087E+00 5.744902736940E+01 9.153402887928E+00 -7.686310671784E+01 -1.024460427262E+02 -2.020590558298E+01 9.159573234848E+00 -2.369031438900E+00 -9.125199331519E-01 -1.031813906222E+00 1.807761501237E+00 -4.743958684689E-01 2.488263961038E+00 3.184194415342E+00 -5.653267362660E+00 1.746381127039E+01 2.330487322222E+00 -4.818793333205E+00 1.136290915773E+01 -3.744990198473E+00 5.169734802140E+00 -4.422945333075E+00 -1.079872267291E+00 4.575004969005E-01 -2.494141406883E+00 -5.282780515577E-01 2.538202117179E+00 -8.069988857992E-01 1.727918142290E+01 3.433070984087E+01 -6.342805125518E+01 -4.817718238891E+01 -1.751417028349E+01 9.465195917675E+01
 -2.305868133880E+00 -5.813618275294E-01 7.322301191215E-01 9.914139670266E-02 1.265824809736E+00 -3.594294701574E-01 3.140771230476E+00 -2.190503220578E+00 7.320052323848E-01 2.606276794167E+00 -8.775079877405E-01 -1.840784760866E+00 -2.111207727720E+00 2.112409247284E+00 -2.658935131868E+00 1.188918168191E+00 2.470125070928E-01 -3.414641948193E-01 -4.945205769450E-01 3.405963101580E-01 -7.755798899913E-01 1.873383243388E+00 1.529017927602E+00 -9.490851263478E-01 -7.247355231370E+00 9.651650924027E-01 4.040468077721E+00 1.371051837984E+00 -1.473231960534E+00 9.667745433911E-01 -9.190421384494E+00 4.029340446287E-01 -8.877842661624E+00 3.589645394554E+00 1.079055081215E+00 8.658126118061E-01 -4.994506148185E+00 1.658824535184E+00 -1.511652325279E-01 -6.762143593291E+00 -4.980510162549E+00 -1.561753629386E+00 2.103679218376E+01
 3.121588719187E-01 2.480347713534E-01 1.772904173276E+00 -5.341885948368E-01 2.971815304596E+00 -2.366208595912E+00 -4.811226101162E-02 6.004062679577E-01 1.250746781983E+00 -5.650004006671E+00 -1.884979567414E+00 7.333925240573E+00 6.377490790853E+00 -9.652490383538E-01 1.732636147638E+00 -1.525833055439E+00 1.306464722764E+00 2.432083270665E-01 6.286890399915E-01 -7.775914185375E-01 -1.467036285513E-01 2.458820477927E+00 2.623619658021E+00 -1.358506842890E+00 -3.075142408339E+00 -5.116271156102E+00 -2.331667045465E+00 -1.637631539113E+00 -3.520267423480E+00 1.558940796181E+00 -1.876458009521E-01 1.651829852975E+00 3.167534591903E+00 1.610488914812E+00 -1.902073826343E+00 -1.893359101383E+00 -9.222173586257E-01 -6.860024702506E+00 -5.303676037689E-01 1.494536382204E+00 9.579840090240E-01 -5.803471970800E+00 1.212028392842E+00 1.508243426876E+01
 7.461126157828E-01 -5.016410245505E-01 -4.036379262033E-01 -2.262393058099E+00 -1.562475111238E-02 2.811218339824E+00 3.656186079221E+00 -2.919985132692E+00 9.236885998826E-01 -1.900680413250E+00 -2.099345247515E+00 -1.345360629055E+00 -9.606455301470E-01 2.431939232923E+00 9.053087857788E-01 5.749875695144E-01 -1.205032879379E+00 -1.244423023454E+00 -1.110869626096E+00 -6.625158242146E-01 2.502839443512E+00 1.084976600809E+00 3.089262299895E-01 6.747828091344E-01 -5.312760571923E+00 3.387898341568E+00 -3.001613547890E+00 7.670589187852E-01 1.292319600890E+00 -2.654577203158E+00 -3.914457318651E+00 -4.508853781844E-01 -5.900906409892E+00 -3.571681840624E-02 1.853989546482E+00 1.441886682767E+00 4.391846102836E+00 2.374509193840E-01 4.788123039564E+00 -4.645387537465E+00 -3.732561182428E+00 -2.357675182259E+00 9.955147269168E+00 -2.370760257263E+00 1.357917184400E+01
 -1.636637127978E+00 -1.613987874936E+00 3.200248441491E+00 -1.827523743383E+00 -9.199832156405E+00 6.158054652201E+00 -3.304986265319E-01 5.701929697050E+00 -3.429977539432E+00 6.445581345072E+01 7.235881803849E+00 -8.618157721817E+01 -2.288177146839E+02 2.599904013851E+01 -7.361691983533E+01 2.642438656128E-01 1.860656719307E+00 -6.258860392467E-01 9.487618603592E+00 1.726790240107E+00 3.380830961739E+00 7.846226583691E+00 -3.984389619384E-02 1.549304823427E+01 -1.667863344821E+01 -9.612624957201E-01 2.865592629762E+00 1.078933883225E+00 -4.229383424045E+00 2.944011578996E-04 1.716628518904E+00 -6.542118184658E-01 4.806750640061E+00 -7.083325838930E+00 -3.387914003055E+00 5.417084351915E+00 -2.957378876677E+01 1.537545858832E+01 -8.581649897055E+00 -5.925018128083E+01 -2.249282281946E+01 8.326033348269E+01 -6.377509375233E-01 -4.846429042700E+00 -1.881311665010E+00 2.663349549637E+02
 7.225590261285E-01 -4.094766762317E-01 -7.874029710592E-01 3.564751706758E+00 -2.193541872837E+00 1.618370945239E+00 -2.781591084747E+00 -8.518700455830E-02 1.406684533974E-01 -7.871302778516E+00 1.686167739633E+00 9.991871288675E+00 1.081456980614E+01 -1.234823740027E+00 2.475574776700E+00 2.422525890671E+00 -4.370192238288E+00 -2.090860055174E-01 1.609891458356E-01 -1.974277944311E+00 -2.164648831855E+00 -1.882506660210E+00 1.540648319506E+00 5.539636167524E-01 4.134776569989E+00 8.143244829477E+00 -1.350521065942E+00 -1.233433388826E+00 -7.291395052594E+00 -1.191523105126E-02 4.871631513982E-01 -1.161537938087E+00 -2.982360276165E+00 -4.462793210122E+00 -3.008272023946E+00 3.483107711941E+00 -1.467020145905E+00 -8.937272478776E+00 2.729791402634E+00 8.880311831639E+00 2.157484815993E+00 -1.115982220121E+01 -4.572637446633E-01 -1.883900919261E+00 1.175237516040E+00 -9.736657790949E+00 1.659651311441E+01
 -3.435662147653E-02 -1.121618206886E+00 -5.811616181395E-01 1.084991785262E+00 -7.777685429070E-02 8.012065783961E-01 -1.927436938751E+00 1.711848219621E+00 -2.089440991941E+00 2.019496684285E+01 7.060936178572E+00 -3.174067613961E+01 -3.940516030647E+01 -5.819687967015E+00 9.657224747341E-03 -1.610895936908E-02 -1.683253396318E+00 3.686031606984E-01 1.764459285628E-01 -1.626306909954E+00 1.603965768411E+00 -9.261516002250E-01 -3.961845032296E-04 7.990615095228E+00 4.377792898310E+00 -9.260622767155E-01 3.285888716107E+00 1.163948631705E+00 -4.802937977135E-01 2.437774127170E+00 -1.598187060847E-01 -3.150096462324E-02 -2.343347890104E+00 3.977679761009E+00 5.326917495432E+00 -6.254186558724E+00 6.598575289476E-01 1.545158814846E+01 -3.108609336964E+01 -1.975507529228E+01 -4.673079117506E+00 3.116847073047E+01 -9.260124066848E-02 -2.719010561326E+00 -4.674957580046E+00 3.144565542227E+01 -6.664535723487E+00 2.334618443075E+01
 -5.468928047807E-02 -1.764777256548E+00 -9.907476372380E-01 -9.394747797185E-01 1.482384794900E+00 1.932855266401E+00 4.177466648195E-01 8.002013697999E-01 1.008261294491E+00 -1.569124841778E+00 -8.114294033656E-02 3.186353485957E+00 6.058191889522E+00 -1.120227406420E+00 2.670092760795E+00 -6.100298072216E+00 -4.065309100095E+00 -5.071795904355E+00 2.025879620782E+00 1.684378465698E+00 -4.373484283575E-01 -3.438272388065E-01 -2.818939093264E-01 -3.510216648045E+00 -1.642796230278E+00 2.677328671877E-01 2.478063658686E+00 -1.940835899764E-02 7.961468217319E-01 3.910654233094E-01 -4.899061357744E-02 6.423203283506E-01 -2.034295652695E-02 -3.440077801544E-01 -6.423080028890E-01 -5.444956678015E-01 1.877119694819E+00 -7.128680312155E-01 -1.302394789143E+00 1.314938501192E+00 2.304130393109E+00 -2.406517936359E+00 -1.430922275580E+00 1.341188425502E+00 -7.357936613355E-01 -7.611170829267E+00 5.464559362394E-01 -8.059924404164E-01 8.128480539473E+00
 -4.241441042421E-01 1.041101142378E-01 1.773962640592E+00 -3.003070036075E-01 5.251110731924E-01 2.131918681011E-01 8.861051596217E-01 2.022979655176E+00 -1.481743354380E-01 -8.324864089479E-01 -6.488945278008E-01 2.130813573000E+00 3.669058511022E+00 1.018412177055E+00 -2.701709354039E+00 -1.350745137488E+00 5.077746132260E-01 -1.194345170170E+00 2.570051334683E+00 7.952483294288E-01 -6.702617082278E-02 -1.202125855527E+00 4.188350837319E-02 -1.049568782171E-01 1.660552592389E+00 -1.511139268772E+00 5.448996855282E-01 -2.019823851536E+00 -2.972616556241E+00 -3.179210330336E-01 1.206386858999E+00 -7.082397495879E-01 -7.573017201153E-01 -2.032284027522E+00 -2.613973312800E+00 2.494391389725E+00 -2.231913957283E+00 -4.753119912028E+00 -5.752837757371E+00 -5.779654899512E-02 -1.882688535862E+00 -1.260535607433E+00 1.433442107168E+00 1.263617176661E+00 -2.352037084202E-01 -1.394143954092E+00 3.106451405676E+00 -1.922834915717E+00 1.231556460218E+00 6.982405626621E+00
 -8.955726394456E-01 9.535945929097E-02 -1.186662352378E+00 -2.483301302569E+00 1.370413078974E+00 2.279732994303E-01 4.222596074753E-01 1.877730560151E+00 -1.251467629748E+00 5.849551768499E+00 1.863853175786E+00 -9.013031274170E+00 -1.630715281125E+01 -1.874230060111E+00 -4.123489536211E+00 -1.898678135195E+00 -1.247777860213E+00 -3.250292416807E+00 2.443917025044E+00 1.658068103312E+00 2.310223797526E+00 2.205958308003E-01 -2.079852910957E+00 -6.870166389041E-01 -1.545221359704E+00 5.524768623279E-01 5.485392313483E+00 -1.040077016369E+00 8.723425180840E-01 -3.326401851693E-01 -6.833105426041E-01 1.249922732539E+00 -1.150999657228E+00 -2.616217321316E+00 -1.153356543219E+00 2.992090610218E+00 1.850238254034E+00 -4.537403150387E+00 -1.326305168607E+01 -5.741101778445E+00 -4.803239069076E+00 9.667856041801E+00 -1.146634184564E+00 -1.122967358636E-01 -8.402690785693E-01 1.784832465631E+01 2.330793797741E+00 1.046999494123E+00 4.627643234028E+00 4.493925015764E+00 2.129771083892E+01
 2.647214020022E-01 -2.002774361265E-01 -2.094286131245E+00 -6.832792150821E+00 -2.877300856056E+00 -4.960769851268E+00 -1.011032850259E+00 6.769912332121E-01 3.419547197690E-01 1.942647986036E+00 1.797228709733E+00 -4.930297886754E+00 -5.865710308348E+00 -2.984509601429E+00 -1.278282474433E+00 -3.198259969217E+00 -1.479578905010E+00 6.925731533058E-01 -1.302138045188E+00 -1.724848011663E+00 1.185542467211E+00 3.255130036658E-01 -2.085556987495E+00 -1.017320850055E+00 -4.439081348956E-01 1.201696696257E+00 4.067375749197E+00 5.665380658314E-01 2.102559319127E+00 1.293967820543E+00 -4.901468511588E-01 -8.240578604499E-01 -1.308399236064E+00 -6.997937865353E-01 9.841672810318E-01 -1.488890336046E-01 5.584588183976E-01 -3.232744654348E+00 -8.070914296816E-01 -2.048519516746E+00 -8.628785861264E-03 6.418140261891E+00 8.807371856677E-01 2.238617069270E+00 1.655370289321E+00 5.078768487595E+00 1.639224905672E-01 -9.941003495101E-02 -4.723909839472E-02 -1.319711226209E+00 -1.728773009812E-01 1.448434191224E+01
 4.349447819573E-02 3.686170756827E-01 6.884900514893E-01 1.325175745273E+00 -5.329218988543E+00 1.864401316932E+00 -2.302130898139E+00 -5.183010465083E-02 -1.750939837996E-01 -2.382740450996E-01 1.655072902775E+00 -2.250334757424E+00 -1.734642536647E+00 1.338097016270E-01 3.068511798045E+00 3.127904100951E-01 3.791321017066E-02 -8.847540495232E-01 1.717055113437E+00 -7.838722214851E-02 -3.305228282905E-01 -1.318054602292E+00 4.129638636898E-01 3.405732418042E-01 3.127575617222E+00 -4.463951093029E+00 8.270200965304E-01 2.284576805221E+00 2.870711336676E+00 1.978764318618E-01 -1.288808388167E+00 6.447101288872E-01 -2.080723461173E+00 -3.249482390155E+00 -5.282716083632E-01 1.170991758060E+00 2.206761891875E+00 -4.223395396308E+00 -9.833037204883E-01 -2.307626874936E+00 -6.154897160103E-01 -5.744207058130E-01 -8.273344456317E-01 -2.182427898887E+00 2.349962562220E+00 1.179510331976E-01 -2.341297417500E+00 -3.976643560398E-01 -1.205105162913E+00 -1.132604299937E+00 1.313919200086E+00 6.172881192995E+00 1.940701810558E+01
 9.790132435783E-01 -1.018349236308E+00 8.136992452216E-01 7.760572532743E-01 -3.991802159149E+00 2.794829529289E+00 -5.796197093776E-02 -5.332254436704E-01 1.498761477166E+00 -7.727686499592E-01 -6.691109761041E-01 -1.319479363704E+00 -1.066877485340E+00 4.043597472350E+00 -4.977282627948E-01 1.548843352166E+00 -6.625250007425E-01 -1.364234983607E+00 -1.504345976671E+00 -2.263312969575E+00 -1.134336901959E+00 -2.240777745549E+00 5.497447273158E-01 1.436914618206E+00 4.846890443799E-01 2.700572865869E+00 8.382911286204E-02 -5.444250199490E-01 -9.022826846470E-01 1.506624967687E+00 8.323922754934E-01 -1.437820634215E+00 9.806600892616E-01 7.951403139452E-02 -1.175838510508E+00 -2.926343420831E+00 -6.816169924936E+00 3.426322232410E+00 -8.442821370417E+00 -3.301844937878E-01 -8.318564197257E-02 -2.159965485247E+00 1.936438708564E+00 2.573293510244E+00 -9.223278242691E-02 4.115920578216E+00 1.804256029262E-01 3.083458196529E+00 -9.776857801056E-02 1.679488474616E+00 -9.815149888071E+00 1.369642718822E+00 -1.354079575591E+00 1.773971194457E+01