#BIOSYM hessian 1
@Type: Hessian Update
@Units
 distance: 	A
 energy: 	Kcal/Mol
#header
@natom 10

#label
L1      L2      L3      L4      L5      L6      L7      L8      L9      L10

#element
Li Li Li Li Li Li Li Li Li Li

#matrix
30
 2.591554277279E+01
 -3.341434160389E+00 3.360503354160E+01
 2.106584195956E-01 -4.196649622679E-01 1.507914513831E+01
 -1.285812832145E+01 7.189510890672E-01 4.758217754285E+00 1.848354453869E+01
 -6.205874885312E-02 -2.697156316161E+00 -2.089098019121E-01 2.080609885692E+00 2.157978868777E+01
 3.693975485083E-01 -2.152534973048E+00 -2.742761619887E+00 -4.526589858223E+00 -1.088877118881E+01 1.810139629854E+01
 1.040505214326E+00 1.988175732808E+00 2.266615369079E+00 -3.977465638285E+00 4.799590297509E+00 -3.523671487805E+00 3.353724479639E+01
 -1.210685968480E+00 -3.608773676631E-01 7.966990816715E-01 2.910320543336E+00 -9.556012765207E+00 1.980994913332E+00 2.066826832319E+00 2.202139553495E+01
 1.475204545587E+00 -3.525741304169E-01 -4.299016201083E-01 -3.635251959863E+00 4.998098311860E+00 -3.610322330746E+00 4.651029496029E-01 -3.466984142571E-01 1.354243944744E+01
 -1.690836774748E+00 2.384904848693E+00 1.338418363754E+00 2.413158049780E+00 -3.811776052066E-01 -6.032891389667E-01 -3.774933118963E+00 -3.594294705153E+00 -4.505084884181E+00 2.120890632855E+01
 1.703701902725E+00 8.362167685165E-01 -4.057533337989E-01 -2.960777713585E-01 2.475455915662E+00 5.313831483724E-01 -5.700726016506E+00 -9.384963745615E+00 -3.594512697783E+00 -2.545460570875E+00 1.979249010542E+01
 1.061088016933E+00 -2.336205584128E+00 5.405489750287E-01 1.109457609311E+00 1.505972408212E+00 2.169039481824E+00 -3.675330778278E+00 -2.288823597383E+00 -3.505137170326E+00 -5.740052709750E+00 7.714125983535E+00 1.768722852063E+01
 1.338687542406E+00 1.163305528817E+00 -3.113027940904E+00 4.673534391237E-02 -2.217894888999E+00 2.210513352707E+00 -8.275788710844E-01 3.077917842473E+00 2.292058916694E+00 -1.355233867704E+01 -1.086393241989E+00 1.480762756423E+00 2.647656949339E+01
 1.536276844361E+00 -5.123219351722E+00 -4.279468329308E-01 -6.414575595647E-01 1.796015050093E+00 6.234796190587E-01 -2.837693641729E+00 2.916920920658E+00 -6.319891562835E-01 -3.462197184676E+00 -1.528671503686E+00 1.966059775885E+00 2.370669182618E+00 3.425104521088E+01
 -1.737844906264E+00 -7.369270099389E-01 1.548297928748E+00 2.233758654448E+00 -6.393178172215E-01 3.910188701891E-01 5.283887948204E-02 8.505561291241E-01 -4.130979933902E-01 3.147306579316E+00 1.295769849130E+00 -2.228897707862E+00 2.451398333741E+00 4.623474444017E+00 1.370099086483E+01
 -2.840520090929E+00 -4.328902632675E+00 -8.977989017192E-01 1.637058702842E+00 6.478218899879E-01 -3.115840614393E-01 -2.153871764328E+00 -6.737003917122E-01 2.460442521436E-01 4.192412031784E+00 1.305573313397E+00 2.050392023009E-01 -6.522600108593E+00 8.271327367459E+00 -1.205928685225E+00 2.285652599447E+01
 -3.022784235209E+00 -9.645240098953E+00 -5.391644434250E+00 6.065646449302E-01 -6.313056945910E-01 2.875302707878E+00 -2.448555389042E+00 1.125101044917E+00 7.569369189307E-02 -4.577662299768E-01 1.073855749634E+00 -3.594163331389E-01 4.855668653051E+00 -7.864127682015E+00 3.604290765578E+00 -1.637752744986E+00 1.692115803754E+01
 -1.093238356759E-01 -4.275269758223E+00 -2.677673369863E+00 -5.454848381118E-01 9.242776157956E-01 3.049388853956E+00 -2.432812253305E+00 3.426395666512E-01 2.536512155374E-01 1.172846367284E+00 -2.810843816529E-01 7.790394558712E-01 -2.903393460369E+00 5.126858756948E+00 -1.711382041859E+00 1.483957823635E+01 9.217335431155E-01 2.232025279985E+01
 -8.618987263900E+00 1.249712960198E+00 -5.621927088494E+00 -1.398532826588E+00 -2.140962741641E-01 4.211883533925E+00 -7.547320038363E+00 2.864315506658E+00 2.307530450487E+00 -2.321213420252E+00 -1.583809280894E+00 2.212027771144E+00 4.500933527411E+00 -3.020885815098E+00 -2.134044271034E+00 -2.426056434915E-01 3.228379434693E+00 9.494302042766E-01 2.727786165126E+01
 2.225781146067E+00 -4.936338298636E+00 2.598935641808E+00 -1.149839658997E+00 -1.383615837785E+00 6.761761003214E+00 3.579227490447E+00 -2.458535629288E+00 -4.405758679786E+00 -2.961775707672E+00 1.888057529993E+00 4.007304652812E+00 -2.155527432632E+00 1.898389492550E+00 -1.711481253325E+00 -6.445175310320E-01 1.486516320396E+00 2.910135056380E+00 5.535188693436E+00 2.745139433663E+01
 4.640656265790E-01 -1.072510713379E+00 -3.321689413884E+00 -2.129651808066E+00 3.618775650062E+00 -8.233967043390E+00 1.711245685970E+00 9.440244712875E-01 -6.400210684090E+00 -5.083940865893E+00 6.358575642112E-01 2.726778091122E+00 -1.155557020854E+00 3.712110777291E+00 -1.665397418126E+00 1.957265363891E+00 6.606034283294E-02 1.615961198463E+00 1.157262801467E+01 1.842333452950E+01 5.736127593121E+01
 2.557294180906E+00 -4.370107698091E+00 -1.566054528791E+00 -4.424444078067E+00 -1.532311105979E+00 5.238624593978E+00 -1.809572694869E+00 1.510737995467E+00 -3.103767806217E+00 -4.026178624523E+00 4.772505354895E+00 6.911257343977E+00 -6.289166330161E-02 1.054401851277E+01 3.624763027300E-01 1.818907006350E+00 7.977137589965E-01 2.410611547641E+00 -1.951576292614E+00 1.080571433743E+01 2.208537215493E+01 5.414981180243E+01
 -9.972388432261E-01 -9.135469099025E+00 5.317957457054E+00 -9.083868884005E-01 1.203494324418E-01 2.667559834188E-01 1.577081471190E+00 2.368470656603E+00 1.654595555620E+00 1.091141963407E+00 -1.910640328112E+00 -2.692952593625E+00 -1.193671005668E+00 -6.646851946363E+00 -3.676651570030E+00 2.638661036714E-01 -8.530688545704E-01 -7.357979634356E-01 -4.496936382209E+00 -4.088851995227E+00 -3.609236344367E+00 1.090402639583E+00 2.084041938782E+01
 -1.545631796039E+00 8.133095548390E+00 -4.067041719810E+00 2.983801832428E+00 -9.899309158123E-01 -7.680239027265E+00 1.851033131566E+00 -2.286536030942E+00 3.589710566612E+00 1.887883821749E+00 3.507338688006E-01 -5.202633839734E+00 2.738383933213E-01 -1.102204687846E+01 -5.362557770164E+00 -6.260940311506E+00 -2.160924149525E+00 -2.055637825285E+01 -5.837361433511E+00 -1.700847227002E+01 -1.924931951676E+01 -3.655317523581E+01 -4.728403778915E-01 6.577646025416E+01
 -1.241490753449E+00 5.491580435543E-01 7.099285301753E-01 3.539575588224E+00 3.506699096180E+00 -4.806198101680E+00 -3.042016189697E+00 -6.858615183502E+00 6.247658580505E+00 4.550617614308E+00 -2.814066602510E+00 -3.047849734733E+00 -8.424174122910E+00 -7.911744648449E+00 -3.300250215862E+00 -2.418522710471E+00 -7.434809470372E-01 -6.242718433004E+00 -1.072553659623E+01 -9.573104782006E+00 -2.653316714075E+01 -2.427985124133E+01 5.115523316439E+00 2.049299198100E+01 4.645664665908E+01
 4.569306443199E+00 -1.532446094988E+00 -1.344515276274E+00 -7.404060924830E+00 8.876701781250E-01 5.998965657617E+00 -7.711746349450E+00 -3.932994240143E+00 -1.505982985693E+00 -6.371795499668E+00 2.530750085731E+00 3.820284026383E+00 7.131806604743E-01 9.347742278385E-01 -4.629901117982E+00 3.598074122118E+00 3.191517856590E+00 9.135133201051E+00 1.800164541541E+01 1.437415492355E+01 4.336907809616E+01 2.406438541057E+01 -7.575861869873E+00 -2.455222532019E+01 -4.658212016774E+01 9.476938586398E+01
 -4.492454712775E+00 5.757800531346E+00 7.409204564908E-01 4.482948659061E+00 -2.171639766145E+00 -7.164180790897E+00 5.259498484683E+00 -1.713172391036E+00 6.859762971216E-01 9.313085781952E+00 -2.999565998422E+00 -1.727303132420E+01 -5.127665489744E+00 -1.097250788663E+01 -2.576193249360E+00 -3.255360567810E+00 -1.464559650206E+00 -1.023529121090E+01 -1.513637355971E+01 -1.838609098019E+01 -3.991418238139E+01 -2.757077590235E+01 5.542485289808E+00 3.066417295456E+01 4.836831667555E+01 -7.839359336230E+01 9.887195090494E+01
 -3.602066505950E+00 3.986236288018E+00 1.914970023019E+00 -3.461501359055E+00 -6.627182546167E+00 1.740913618995E+00 -1.144499169513E+01 -9.282247140541E-02 -1.789495044759E+00 -6.999593408898E+00 6.244752913116E+00 -5.163994773297E-01 -2.973342464187E+00 -4.848313057690E+00 1.302893286668E-01 -1.632678341763E+01 -1.177986945419E+00 -7.138733535087E+00 1.026976902772E+00 -5.661146555040E+00 -2.888260010475E+00 -2.197149839499E+01 -1.541782374786E+00 2.270755961680E+01 -4.415248247528E+00 1.712313088992E+01 -1.184121936885E+01 7.016804859060E+01
 -1.400864380193E+00 -1.010503682966E+00 -5.151575391000E-01 4.083376640125E+00 -1.259118865035E+01 -5.997336871032E+00 4.687819572455E+00 -2.738504409215E+00 4.109128504847E+00 1.629842069113E+01 -1.577255057754E+01 -1.133634873855E+01 -5.527255298144E+00 -2.063427441824E+01 1.020187580650E+00 -6.801789496229E+00 -4.804406678944E+00 -1.406862563663E+01 -2.156351425803E+01 -3.423117084218E+01 -6.608749437360E+01 -4.768305920564E+01 6.881504616304E+00 5.000914652565E+01 6.531175187507E+01 -1.036469509308E+02 1.048008442138E+02 -7.404886140543E+00 1.885480455739E+02
 4.304841093551E+00 -2.545208948336E+00 -4.669844755029E+00 -4.731206045270E+00 3.851445503971E+00 5.720627307674E+00 -1.974519980994E+00 1.720316271552E+00 -3.713107728048E+00 -9.271733152642E-01 -3.246954002392E+00 4.307065517649E+00 3.591072158982E+00 7.002507381114E+00 -1.682781483010E+00 -5.316314526986E+00 1.833463515823E+00 7.162431351796E+00 7.476206378252E+00 6.810332299613E+00 1.708075123684E+01 3.178543152992E+01 -1.594315436552E+00 -3.791217364875E+01 -3.188871214121E+01 4.810275708123E+01 -5.380014165638E+01 -2.319625150976E+00 -6.193434366602E+01 6.750717385725E+01

