#BIOSYM hessian 1
@Type: Hessian Update
@Units
 distance: 	A
 energy: 	Kcal/Mol
#header
@natom 5

#label
L1      L2      L3      L4      L5

#element
Li Li Li Li Li

#matrix
15
 3.741597860316E+01
 -3.187404939669E+00 5.595620941815E+00
 8.758071812823E+00 3.934485437390E-01 1.069503129730E+01
 -3.973127060969E+00 -1.850472965167E+00 -1.047001175709E+00 8.095692066337E+00
 -1.975079558038E+00 -5.994657292050E-01 1.394225677851E+00 -6.038163986226E-01 2.872935611458E+01
 -8.666594672304E-02 1.253289911607E+00 -5.526144567336E+00 -7.882550865140E-01 -2.562804991744E+01 3.592308210113E+01
 -3.104855929328E+00 -2.502266833212E+00 4.448646834216E+00 -3.501004686982E+00 -6.309572941406E-01 2.448334730889E+00 4.450876100798E+01
 -1.550470777396E+00 5.921618719648E-01 -2.608592541409E+00 3.695295495251E+00 -9.146850938975E-01 5.047879458392E-01 -2.621713765725E+00 4.838895777850E+00
 -4.868646262524E+00 3.089868371570E-01 1.597203145142E+00 -2.788512159515E+00 6.784226855593E+00 -9.850319274938E+00 -7.895234921898E+00 -1.012366794642E+00 1.141194319792E+01
 -5.433611416612E+00 6.108109645908E+00 2.919378400978E+00 -1.067043192879E+00 -2.435717260719E+00 2.415989195981E+00 -7.915547023252E+00 -3.020247496236E+00 8.168179039045E-02 1.386594779153E+01
 7.747948613403E+00 -4.541890729108E+00 9.839011856602E-01 2.042949082038E+00 -1.387441866194E+01 4.013732792320E+00 -3.920777821489E+00 -1.524073336643E+00 -2.877033477146E+00 -1.011783341449E+00 2.167728463744E+01
 2.963371248185E+00 4.125100365941E-01 -3.642455192186E+00 2.568842839581E+00 -2.882430799897E+00 4.448295177957E+00 -6.868251839963E+00 1.937547931172E+00 -4.811152710678E+00 8.292606850649E-01 6.189806158625E+00 9.885241792740E+00
 -2.490438419625E+01 1.432035092140E+00 -1.507909587231E+01 4.454828744925E-01 5.645570511520E+00 -3.989402893633E+00 -2.998735336842E+01 3.497136544105E+00 1.547071155355E+01 5.502538412181E-01 -4.858336532503E+00 5.067770671324E-01 5.389600084895E+01
 -1.034993338300E+00 -1.046426355467E+00 -1.629828658408E-01 -3.283955213499E+00 -1.334078662954E+01 1.985623926768E+01 9.675715714567E+00 -2.992299219274E+00 -3.203813420962E+00 3.596384524958E-01 -1.736901909747E+00 -5.657433326494E+00 -5.716405615263E+00 1.911641411403E+01
 -6.766130851761E+00 -2.368235329097E+00 -3.123634682918E+00 2.054925582157E+00 2.033202818390E+01 -2.499491343681E+01 7.866505196756E+00 1.178623459040E+00 1.652325642555E+00 -6.246310072415E+00 -8.310406659459E+00 -5.879929067832E+00 3.091010145263E+00 -1.083200965438E+01 3.234615154500E+01

