 Job started on host DESKTOP-5CQNRD0
 at Sat Aug 31 18:07:14 2019

 +-------------------------------------------------+
 |                                                 |
 |      CCC   AA    SSS  TTTTT  EEEEE  PPPP        |
 |     C     A  A  S       T    E      P   P       |
 |     C     AAAA   SS     T    EEE    PPPP        |
 |     C     A  A     S    T    E      P           |
 |      CCC  A  A  SSS     T    EEEEE  P           |
 |                                                 |
 +-------------------------------------------------+
 |                                                 |
 | Materials Studio CASTEP version 2017            |
 | Ab Initio Total Energy Program                  |
 |                                                 |
 | Authors:                                        |
 | M. Segall, M. Probert, C. Pickard, P. Hasnip,   |
 | S. Clark, K. Refson, J. R. Yates, M. Payne      |
 |                                                 |
 | Contributors:                                   |
 | P. Lindan, P. Haynes, J. White, V. Milman,      |
 | N. Govind, M. Gibson, P. Tulip, V. Cocula,      |
 | B. Montanari, D. Quigley, M. Glover,            |
 | L. Bernasconi, A. Perlov, M. Plummer,           |
 | E. McNellis, J. Meyer, J. Gale, D. Jochym       |
 | J. Aarons, B. Walker, R. Gillen, D. Jones       |
 | T. Green, I. J. Bush, C. J. Armstrong,          |
 | E. J. Higgins, E. L. Brown, M. S. McFly         |
 |                                                 |
 | Copyright (c) 2000 - 2016                       |
 |                                                 |
 | Please cite                                     |
 |                                                 |
 |     "First principles methods using CASTEP"     |
 |                                                 |
 |         Zeitschrift fuer Kristallographie       |
 |           220(5-6) pp. 567-570 (2005)           |
 |                                                 |
 | S. J. Clark, M. D. Segall, C. J. Pickard,       |
 | P. J. Hasnip, M. J. Probert, K. Refson,         |
 | M. C. Payne                                     |
 |                                                 |
 |       in all publications arising from          |
 |              your use of CASTEP                 |
 |                                                 |
 +-------------------------------------------------+
 
 
 This version was compiled for x86_64-windows-msvc2008 on May 05 2016
 Intel(R) Math Kernel Library Version 11.1.2 
 Fundamental constants values: CODATA 2010
 
License checkout of MS_castep successful
 
 
 Atomic calculation performed for Ni: 1s2 2s2 2p6 3s2 3p6 3d8 4s2
 
 Converged in 91 iterations to an ae energy of -41375.898 eV
 
 Identity difference: 8.24E-04
 
   ============================================================                
   | Pseudopotential Report - Date of generation 31-08-2019   |                
   ------------------------------------------------------------                
   | Element: Ni Ionic charge: 10.00 Level of theory: PBE     |                
   | Atomic Solver: Koelling-Harmon                           |                
   |                                                          |                
   |               Reference Electronic Structure             |                
   |         Orbital         Occupation         Energy        |                
   |            3d              8.000           -0.326        |                
   |            4s              2.000           -0.207        |                
   |                                                          |                
   |                 Pseudopotential Definition               |                
   |        Beta     l      e      Rc     scheme   norm       |                
   |          1      0   -0.207   1.999     qc      0         |                
   |          2      0    0.250   1.999     qc      0         |                
   |          3      1    0.000   1.999     qc      0         |                
   |          4      1    0.250   1.999     qc      0         |                
   |          5      2   -0.326   1.999     qc      0         |                
   |          6      2    0.250   1.999     qc      0         |                
   |         loc     3    0.000   2.191     pn      0         |                
   |                                                          |                
   | Augmentation charge Rinner = 1.001                       |                
   | Partial core correction Rc = 1.001                       |                
   ------------------------------------------------------------                
   | "3|2.2|2|1|10|12.1|14.7|40UU:41UU:32UU(qc=6)[]"          |                
   ------------------------------------------------------------                
   |      Author: Chris J. Pickard, Cambridge University      |                
   ============================================================                
 
 Doing a self consistent calculation for the test configuration
 
 Atomic calculation performed for Ni: 1s2 2s2 2p6 3s2 3p6 3d8 4s2
 
 Converged in 91 iterations to an ae energy of -41375.898 eV
 
 ---------------------------------------
 AE eigenvalue nl 10 =     -301.79263876
 AE eigenvalue nl 20 =      -36.08162216
 AE eigenvalue nl 21 =      -31.04152791
 AE eigenvalue nl 30 =       -4.08135009
 AE eigenvalue nl 31 =       -2.62346104
 AE eigenvalue nl 32 =       -0.32611860
 AE eigenvalue nl 40 =       -0.20737752
 ---------------------------------------
 PS eigenvalue nl 32 =       -0.32597884
 PS eigenvalue nl 40 =       -0.20738932
 ---------------------------------------
 Maximum eigenvalue error:   1.40E-04
 
 Derived cutoff energies: C=   8 M=  12 F=  12 E=  16
 
 
 ***************************************
 
 Atomic calculation performed for Cu: 1s2 2s2 2p6 3s2 3p6 3d10 4s1
 
 Converged in 144 iterations to an ae energy of -45030.710 eV
 
 Identity difference: 5.23E-04
 
   ============================================================                
   | Pseudopotential Report - Date of generation 31-08-2019   |                
   ------------------------------------------------------------                
   | Element: Cu Ionic charge: 11.00 Level of theory: PBE     |                
   | Atomic Solver: Koelling-Harmon                           |                
   |                                                          |                
   |               Reference Electronic Structure             |                
   |         Orbital         Occupation         Energy        |                
   |            3d             10.000           -0.185        |                
   |            4s              1.000           -0.169        |                
   |                                                          |                
   |                 Pseudopotential Definition               |                
   |        Beta     l      e      Rc     scheme   norm       |                
   |          1      0   -0.169   1.996     qc      0         |                
   |          2      0    0.250   1.996     qc      0         |                
   |          3      1    0.000   1.996     qc      0         |                
   |          4      1    0.250   1.996     qc      0         |                
   |          5      2   -0.185   1.996     qc      0         |                
   |          6      2    0.250   1.996     qc      0         |                
   |         loc     3    0.000   2.206     pn      0         |                
   |                                                          |                
   | Augmentation charge Rinner = 0.999                       |                
   | Partial core correction Rc = 0.999                       |                
   ------------------------------------------------------------                
   | "3|2.2|2|1|10|13|15|40UU:41UU:32UU(qc=6)[]"              |                
   ------------------------------------------------------------                
   |      Author: Chris J. Pickard, Cambridge University      |                
   ============================================================                
 
 Doing a self consistent calculation for the test configuration
 
 Atomic calculation performed for Cu: 1s2 2s2 2p6 3s2 3p6 3d10 4s1
 
 Converged in 144 iterations to an ae energy of -45030.710 eV
 
 ---------------------------------------
 AE eigenvalue nl 10 =     -325.27407816
 AE eigenvalue nl 20 =      -39.04519067
 AE eigenvalue nl 21 =      -33.69829316
 AE eigenvalue nl 30 =       -4.21529652
 AE eigenvalue nl 31 =       -2.65124927
 AE eigenvalue nl 32 =       -0.18517456
 AE eigenvalue nl 40 =       -0.16941650
 ---------------------------------------
 PS eigenvalue nl 32 =       -0.18509449
 PS eigenvalue nl 40 =       -0.16945237
 ---------------------------------------
 Maximum eigenvalue error:   8.01E-05
 
 Derived cutoff energies: C=  10 M=  12 F=  12 E=  16
 
 
 ***************************************
 
 Pseudo atomic calculation performed for Ni 3d8 4s2
 
 Converged in 40 iterations to a total energy of -1355.1866 eV
 
 
 Pseudo atomic calculation performed for Cu 3d10 4s1
 
 Converged in 53 iterations to a total energy of -1676.7763 eV
 
 Calculation not parallelised.

 ************************************ Title ************************************
 CASTEP calculation from Materials Studio

 ***************************** General Parameters ******************************
  
 output verbosity                               : normal  (1)
 write checkpoint data to                       : NiCu.check
 type of calculation                            : geometry optimization
 stress calculation                             : on
 density difference calculation                 : off
 electron localisation func (ELF) calculation   : off
 Hirshfeld analysis                             : off
 unlimited duration calculation
 timing information                             : on
 memory usage estimate                          : on
 write final potential to formatted file        : off
 write final density to formatted file          : off
 write BibTeX reference list                    : on
 write OTFG pseudopotential files               : on
 checkpoint writing                             : both castep_bin and check files
  
 output         length unit                     : A
 output           mass unit                     : amu
 output           time unit                     : ps
 output         charge unit                     : e
 output           spin unit                     : hbar/2
 output         energy unit                     : eV
 output          force unit                     : eV/A
 output       velocity unit                     : A/ps
 output       pressure unit                     : GPa
 output     inv_length unit                     : 1/A
 output      frequency unit                     : cm-1
 output force constant unit                     : eV/A**2
 output         volume unit                     : A**3
 output   IR intensity unit                     : (D/A)**2/amu
 output         dipole unit                     : D
 output         efield unit                     : eV/A/e
 output        entropy unit                     : J/mol/K
  
 wavefunctions paging                           : none
 random number generator seed                   : randomised (180726095)
 data distribution                              : optimal for this architecture
 optimization strategy                          : maximize speed(+++)

 *********************** Exchange-Correlation Parameters ***********************
  
 using functional                               : Perdew Burke Ernzerhof
 relativistic treatment                         : Koelling-Harmon
 DFT+D: Semi-empirical dispersion correction    : off

 ************************* Pseudopotential Parameters **************************
  
 pseudopotential representation                 : reciprocal space
 <beta|phi> representation                      : reciprocal space
 spin-orbit coupling                            : off

 **************************** Basis Set Parameters *****************************
  
 plane wave basis set cut-off                   :   408.2000   eV
 size of standard grid                          :     1.7500
 size of   fine   grid                          :     2.1000
 size of   fine   gmax                          :    21.7367   1/A
 largest prime factor in FFT                    :          5
 finite basis set correction                    : automatic
 number of sample energies                      :          3
           sample  spacing                      :     5.0000   eV

 **************************** Electronic Parameters ****************************
  
 number of  electrons                           :  10.30    
 net charge of system                           :  0.000    
 net spin   of system                           :  1.000    
 number of  up  spins                           :  5.650    
 number of down spins                           :  4.650    
 treating system as spin-polarized
 number of bands                                :         10

 ********************* Electronic Minimization Parameters **********************
  
 Method: Treating system as metallic with density mixing treatment of electrons,
         and number of  SD  steps               :          1
         and number of  CG  steps               :          4
  
 total energy / atom convergence tol.           : 0.1000E-05   eV
 eigen-energy convergence tolerance             : 0.1000E-06   eV
 max force / atom convergence tol.              : ignored
 convergence tolerance window                   :          3   cycles
 max. number of SCF cycles                      :        100
 number of fixed-spin iterations                :          6
 smearing scheme                                : Gaussian
 smearing width                                 : 0.1000       eV
 Fermi energy convergence tolerance             : 0.2721E-13   eV
 periodic dipole correction                     : NONE

 ************************** Density Mixing Parameters **************************
  
 density-mixing scheme                          : Pulay
 max. length of mixing history                  :         20
 charge density mixing amplitude                : 0.5000    
   spin density mixing amplitude                :  2.000    
 cut-off energy for mixing                      :  408.2       eV
 charge density mixing g-vector                 :  1.500       1/A
   spin density mixing g-vector                 :  1.500       1/A

 ********************** Geometry Optimization Parameters ***********************
  
 optimization method                            : BFGS
 variable cell method                           : fixed basis quality
 max. number of steps                           :        100
 estimated bulk modulus                         :  500.0       GPa
 estimated <frequency>                          :  1668.       cm-1
 geom line minimiser                            : on
 with line minimiser tolerance                  :     0.4000
  with spin fully able to relax for all steps
 total energy convergence tolerance             : 0.1000E-04   eV/atom
        max ionic |force| tolerance             : 0.3000E-01   eV/A
 max ionic |displacement| tolerance             : 0.1000E-02   A
   max |stress component| tolerance             : 0.5000E-01   GPa
 convergence tolerance window                   :          2   steps
 backup results every                           :          5   steps

 *******************************************************************************
  
 
                           -------------------------------
                                      Unit Cell
                           -------------------------------
        Real Lattice(A)                      Reciprocal Lattice(1/A)
   0.0000000   1.7620000   1.7620000       -1.7829697   1.7829697   1.7829697
   1.7620000   0.0000000   1.7620000        1.7829697  -1.7829697   1.7829697
   1.7620000   1.7620000   0.0000000        1.7829697   1.7829697  -1.7829697
 
                       Lattice parameters(A)       Cell Angles
                    a =    2.491844          alpha =   60.000000
                    b =    2.491844          beta  =   60.000000
                    c =    2.491844          gamma =   60.000000
 
                       Current cell volume =   10.940765       A**3
 
                           -------------------------------
                                     Cell Contents
                           -------------------------------
                         Total number of ions in cell =    2
                      Total number of species in cell =    2
                        Max number of any one species =    1
 
            xxxxxxxxxxxxxxxxxxxxxxxxxxxxxxxxxxxxxxxxxxxxxxxxxxxxxxxxxxxx
            x  Element    Atom        Fractional coordinates of atoms  x
            x            Number           u          v          w      x
            x----------------------------------------------------------x
            x  Ni           1         0.000000   0.000000   0.000000   x 
            x  Cu           1         0.000000   0.000000   0.000000   x 
            xxxxxxxxxxxxxxxxxxxxxxxxxxxxxxxxxxxxxxxxxxxxxxxxxxxxxxxxxxxx
 
  
        xxxxxxxxxxxxxxxxxxxxxxxxxxxxxxxxxxxxxxxxxxxxxxxxxxxxxxxxxxxxxxxxxxxx
        x  Mixture   Fractional coordinates of atoms  Components  Weights  x
        x   atoms       u          v          w                            x
        x------------------------------------------------------------------x
        x    1        0.000000   0.000000   0.000000   Ni        0.700000  x
        x                                              Cu        0.300000  x
        xxxxxxxxxxxxxxxxxxxxxxxxxxxxxxxxxxxxxxxxxxxxxxxxxxxxxxxxxxxxxxxxxxxx
 
 
 
                         No user defined ionic velocities
 
                           -------------------------------
                                   Details of Species
                           -------------------------------
 
                               Mass of species in AMU
                                    Ni   58.7099991
                                    Cu   63.5460014
 
                          Electric Quadrupole Moment (Barn)
                                    Ni    0.1620000 Isotope 61
                                    Cu   -0.2200000 Isotope 63
 
                          Files used for pseudopotentials:
                                    Ni 3|2.2|2|1|10|12.1|14.7|40UU:41UU:32UU(qc=6)[]
                                    Cu 3|2.2|2|1|10|13|15|40UU:41UU:32UU(qc=6)[]
 
                           -------------------------------
                              k-Points For BZ Sampling
                           -------------------------------
                       MP grid size for SCF calculation is 12 12 12
                            with an offset of   0.000  0.000  0.000
                       Number of kpoints used =           182
 
                           -------------------------------
                               Symmetry and Constraints
                           -------------------------------
 
                      Maximum deviation from symmetry =  0.00000         ANG
 
                      Number of symmetry operations   =          48
         There are no ionic constraints specified or generated for this cell
                      Point group of crystal =    32: Oh, m-3m, 4/m -3 2/m
                      Space group of crystal =   225: Fm-3m, -F 4 2 3
 
             Set iprint > 1 for details on symmetry rotations/translations
 
                         Centre of mass is NOT constrained
 
                         Number of cell constraints= 5
                         Cell constraints are:  1 1 1 0 0 0
 
                         External pressure/stress (GPa)
                          0.00000   0.00000   0.00000
                                    0.00000   0.00000
                                              0.00000
  
+---------------- MEMORY AND SCRATCH DISK ESTIMATES PER PROCESS --------------+
|                                                     Memory          Disk    |
| Baseline code, static data and system overhead        0.0 MB         0.0 MB |
| BLAS internal memory storage                          0.0 MB         0.0 MB |
| Model and support data                               66.6 MB         0.0 MB |
| Electronic energy minimisation requirements          29.7 MB         0.0 MB |
| Force calculation requirements                        1.4 MB         0.0 MB |
| Stress calculation requirements                       1.5 MB         0.0 MB |
|                                               ----------------------------- |
| Approx. total storage required per process           96.3 MB         0.0 MB |
|                                                                             |
| Requirements will fluctuate during execution and may exceed these estimates |
+-----------------------------------------------------------------------------+
Calculating finite basis set correction with  3 cut-off energies.
Calculating total energy with cut-off of  398.200eV.
------------------------------------------------------------------------ <-- SCF
SCF loop      Energy           Fermi           Energy gain       Timer   <-- SCF
                               energy          per atom          (sec)   <-- SCF
------------------------------------------------------------------------ <-- SCF
Initial  -1.27942921E+003  0.00000000E+000                        20.39  <-- SCF
      1  -1.41572614E+003  1.42112408E+001   1.36296933E+002      24.91  <-- SCF
      2  -1.44865263E+003  7.41667305E+000   3.29264897E+001      28.38  <-- SCF
      3  -1.45319707E+003  6.56858697E+000   4.54443208E+000      31.42  <-- SCF
      4  -1.45323967E+003  6.56202922E+000   4.26032016E-002      34.36  <-- SCF
      5  -1.45319475E+003  5.77471282E+000  -4.49227773E-002      37.42  <-- SCF
      6  -1.45346325E+003  5.02121912E+000   2.68500118E-001      40.53  <-- SCF
      7  -1.45347267E+003  5.20175094E+000   9.42780942E-003      43.67  <-- SCF
      8  -1.45353238E+003  5.03572812E+000   5.97029541E-002      46.83  <-- SCF
      9  -1.45353255E+003  5.05870773E+000   1.74597375E-004      49.92  <-- SCF
     10  -1.45353344E+003  5.05021629E+000   8.84804088E-004      53.00  <-- SCF
     11  -1.45353363E+003  5.05115841E+000   1.93768998E-004      56.08  <-- SCF
     12  -1.45353364E+003  5.05255635E+000   5.29968874E-006      59.06  <-- SCF
     13  -1.45353364E+003  5.05193552E+000   6.85860062E-006      62.03  <-- SCF
     14  -1.45353364E+003  5.05190253E+000  -2.11477399E-006      64.05  <-- SCF
     15  -1.45353364E+003  5.05187030E+000   4.29200845E-008      65.98  <-- SCF
     16  -1.45353364E+003  5.05188052E+000   1.31734147E-008      67.92  <-- SCF
------------------------------------------------------------------------ <-- SCF
 
Integrated Spin Density     =    0.238606     hbar/2                        
Integrated |Spin Density|   =    0.279539     hbar/2                        
 
Final energy, E             =  -1453.523361424     eV
Final free energy (E-TS)    =  -1453.533639834     eV
(energies not corrected for finite basis set)
 
NB est. 0K energy (E-0.5TS)      =  -1453.528500629     eV
 
Calculating total energy with cut-off of  403.200eV.
------------------------------------------------------------------------ <-- SCF
SCF loop      Energy           Fermi           Energy gain       Timer   <-- SCF
                               energy          per atom          (sec)   <-- SCF
------------------------------------------------------------------------ <-- SCF
Initial  -1.45352344E+003  0.00000000E+000                        68.34  <-- SCF
      1  -1.45353936E+003  5.05135843E+000   1.59207331E-002      71.33  <-- SCF
      2  -1.45353936E+003  5.05135841E+000   3.35638143E-007      73.38  <-- SCF
      3  -1.45353937E+003  5.05514692E+000   3.24778395E-006      75.52  <-- SCF
      4  -1.45353938E+003  5.04575922E+000   8.73009810E-006      78.52  <-- SCF
      5  -1.45353937E+003  5.05346056E+000  -9.69114156E-006      81.31  <-- SCF
      6  -1.45353937E+003  5.05237473E+000  -9.89143960E-008      83.23  <-- SCF
      7  -1.45353937E+003  5.05283297E+000   2.63022433E-007      85.19  <-- SCF
------------------------------------------------------------------------ <-- SCF
 
Integrated Spin Density     =    0.238722     hbar/2                        
Integrated |Spin Density|   =    0.279694     hbar/2                        
 
Final energy, E             =  -1453.529082484     eV
Final free energy (E-TS)    =  -1453.539365964     eV
(energies not corrected for finite basis set)
 
NB est. 0K energy (E-0.5TS)      =  -1453.534224224     eV
 
Calculating total energy with cut-off of  408.200eV.
------------------------------------------------------------------------ <-- SCF
SCF loop      Energy           Fermi           Energy gain       Timer   <-- SCF
                               energy          per atom          (sec)   <-- SCF
------------------------------------------------------------------------ <-- SCF
Initial  -1.45352916E+003  0.00000000E+000                        85.62  <-- SCF
      1  -1.45354441E+003  5.05230410E+000   1.52450287E-002      88.62  <-- SCF
      2  -1.45354441E+003  5.05230409E+000   2.44542375E-007      90.61  <-- SCF
      3  -1.45354441E+003  5.05596838E+000   3.06797852E-006      92.73  <-- SCF
      4  -1.45354442E+003  5.04690673E+000   8.14700846E-006      95.77  <-- SCF
      5  -1.45354441E+003  5.05435674E+000  -9.04444547E-006      98.52  <-- SCF
      6  -1.45354441E+003  5.05329573E+000  -1.08518404E-007     100.48  <-- SCF
      7  -1.45354441E+003  5.05374665E+000   2.57688720E-007     102.38  <-- SCF
------------------------------------------------------------------------ <-- SCF
 
Integrated Spin Density     =    0.238823     hbar/2                        
Integrated |Spin Density|   =    0.279836     hbar/2                        
 
Final energy, E             =  -1453.534125827     eV
Final free energy (E-TS)    =  -1453.544409984     eV
(energies not corrected for finite basis set)
 
NB est. 0K energy (E-0.5TS)      =  -1453.539267906     eV
 
 For future reference: finite basis dEtot/dlog(Ecut) =      -0.424724eV
 Total energy corrected for finite basis set =   -1453.544274 eV
 
+---------------- MEMORY AND SCRATCH DISK ESTIMATES PER PROCESS --------------+
|                                                     Memory          Disk    |
| Model and support data                               77.3 MB         0.0 MB |
| Electronic energy minimisation requirements          29.7 MB         0.0 MB |
| Geometry minimisation requirements                   44.0 MB         0.0 MB |
|                                               ----------------------------- |
| Approx. total storage required per process          151.0 MB         0.0 MB |
|                                                                             |
| Requirements will fluctuate during execution and may exceed these estimates |
+-----------------------------------------------------------------------------+
 
 
 ***************** Stress Tensor *****************
 *                                               *
 *          Cartesian components (GPa)           *
 * --------------------------------------------- *
 *             x             y             z     *
 *                                               *
 *  x     -3.093906      0.000000      0.000000  *
 *  y      0.000000     -3.093906      0.000000  *
 *  z      0.000000      0.000000     -3.093906  *
 *                                               *
 *  Pressure:    3.0939                          *
 *                                               *
 *************************************************
 BFGS: finished iteration     0 with enthalpy= -1.45354427E+003 eV
  
 +-----------+-----------------+-----------------+------------+-----+ <-- BFGS
 | Parameter |      value      |    tolerance    |    units   | OK? | <-- BFGS
 +-----------+-----------------+-----------------+------------+-----+ <-- BFGS
 |  dE/ion   |   0.000000E+000 |   1.000000E-005 |         eV | No  | <-- BFGS
 |   Smax    |   3.093906E+000 |   5.000000E-002 |        GPa | No  | <-- BFGS
 +-----------+-----------------+-----------------+------------+-----+ <-- BFGS
  

================================================================================
 Starting BFGS iteration          1 ...
================================================================================
  
 +------------+-------------+-------------+-----------------+ <-- min BFGS
 |    Step    |   lambda    |   F.delta'  |    enthalpy     | <-- min BFGS
 +------------+-------------+-------------+-----------------+ <-- min BFGS
 |  previous  |    0.000000 |    0.013448 |    -1453.544274 | <-- min BFGS
 +------------+-------------+-------------+-----------------+ <-- min BFGS
  

--------------------------------------------------------------------------------
 BFGS: starting iteration         1 with trial guess (lambda=  1.000000)
--------------------------------------------------------------------------------
 
+---------------- MEMORY AND SCRATCH DISK ESTIMATES PER PROCESS --------------+
|                                                     Memory          Disk    |
| Model and support data                               77.8 MB         0.0 MB |
| Electronic energy minimisation requirements          30.4 MB         0.0 MB |
| Geometry minimisation requirements                   45.0 MB         0.0 MB |
|                                               ----------------------------- |
| Approx. total storage required per process          153.2 MB         0.0 MB |
|                                                                             |
| Requirements will fluctuate during execution and may exceed these estimates |
+-----------------------------------------------------------------------------+
 
 
                           -------------------------------
                                      Unit Cell
                           -------------------------------
        Real Lattice(A)              Reciprocal Lattice(1/A)
   0.0000000   1.7656343   1.7656343       -1.7792997   1.7792997   1.7792997
   1.7656343   0.0000000   1.7656343        1.7792997  -1.7792997   1.7792997
   1.7656343   1.7656343  -0.0000000        1.7792997   1.7792997  -1.7792997
 
                       Lattice parameters(A)       Cell Angles
                    a =    2.496984          alpha =   60.000000
                    b =    2.496984          beta  =   60.000000
                    c =    2.496984          gamma =   60.000000
 
                Current cell volume =   11.008605 A**3
 
------------------------------------------------------------------------ <-- SCF
SCF loop      Energy           Fermi           Energy gain       Timer   <-- SCF
                               energy          per atom          (sec)   <-- SCF
------------------------------------------------------------------------ <-- SCF
Initial  -1.45352511E+003  0.00000000E+000                       103.72  <-- SCF
      1  -1.45357042E+003  4.64724180E+000   4.53125673E-002     106.89  <-- SCF
      2  -1.45357043E+003  4.64724171E+000   1.00049178E-005     110.11  <-- SCF
      3  -1.45356789E+003  5.31808697E+000  -2.54383456E-003     113.23  <-- SCF
      4  -1.45354458E+003  4.99292035E+000  -2.33063858E-002     116.33  <-- SCF
      5  -1.45354511E+003  4.99257702E+000   5.30090982E-004     119.61  <-- SCF
      6  -1.45354511E+003  4.99286172E+000  -1.23728571E-006     121.89  <-- SCF
      7  -1.45354511E+003  4.99283879E+000   1.77589069E-007     123.81  <-- SCF
      8  -1.45354511E+003  4.99252387E+000   2.54993036E-006     125.73  <-- SCF
      9  -1.45354511E+003  4.99259846E+000  -6.27733813E-007     127.67  <-- SCF
     10  -1.45354511E+003  4.99260509E+000  -3.86586832E-008     129.56  <-- SCF
------------------------------------------------------------------------ <-- SCF
 
Integrated Spin Density     =    0.239521     hbar/2                        
Integrated |Spin Density|   =    0.280932     hbar/2                        
 
Final energy, E             =  -1453.534739285     eV
Final free energy (E-TS)    =  -1453.545113188     eV
(energies not corrected for finite basis set)
 
NB est. 0K energy (E-0.5TS)      =  -1453.539926236     eV
 
 
 ***************** Stress Tensor *****************
 *                                               *
 *          Cartesian components (GPa)           *
 * --------------------------------------------- *
 *             x             y             z     *
 *                                               *
 *  x     -1.894360      0.000000      0.000000  *
 *  y      0.000000     -1.894360      0.000000  *
 *  z      0.000000      0.000000     -1.894360  *
 *                                               *
 *  Pressure:    1.8944                          *
 *                                               *
 *************************************************
  
 +------------+-------------+-------------+-----------------+ <-- min BFGS
 |    Step    |   lambda    |   F.delta'  |    enthalpy     | <-- min BFGS
 +------------+-------------+-------------+-----------------+ <-- min BFGS
 |  previous  |    0.000000 |    0.013448 |    -1453.544274 | <-- min BFGS
 | trial step |    1.000000 |    0.008268 |    -1453.545053 | <-- min BFGS
 +------------+-------------+-------------+-----------------+ <-- min BFGS
  

--------------------------------------------------------------------------------
 BFGS: improving iteration         1 with line minimization (lambda=  2.596161)
--------------------------------------------------------------------------------
 
                           -------------------------------
                                      Unit Cell
                           -------------------------------
        Real Lattice(A)              Reciprocal Lattice(1/A)
   0.0000000   1.7714352   1.7714352       -1.7734730   1.7734730   1.7734730
   1.7714352   0.0000000   1.7714352        1.7734730  -1.7734730   1.7734730
   1.7714352   1.7714352  -0.0000000        1.7734730   1.7734730  -1.7734730
 
                       Lattice parameters(A)       Cell Angles
                    a =    2.505188          alpha =   60.000000
                    b =    2.505188          beta  =   60.000000
                    c =    2.505188          gamma =   60.000000
 
                Current cell volume =   11.117467 A**3
 
------------------------------------------------------------------------ <-- SCF
SCF loop      Energy           Fermi           Energy gain       Timer   <-- SCF
                               energy          per atom          (sec)   <-- SCF
------------------------------------------------------------------------ <-- SCF
Initial  -1.45351133E+003  0.00000000E+000                       130.92  <-- SCF
      1  -1.45361031E+003  4.34484929E+000   9.89827491E-002     133.92  <-- SCF
      2  -1.45361034E+003  4.34484903E+000   2.61454976E-005     137.08  <-- SCF
      3  -1.45360622E+003  5.42639078E+000  -4.12339596E-003     140.06  <-- SCF
      4  -1.45354379E+003  4.89722727E+000  -6.24243853E-002     143.05  <-- SCF
      5  -1.45354529E+003  4.89625651E+000   1.49838764E-003     146.02  <-- SCF
      6  -1.45354529E+003  4.89645036E+000  -5.44412588E-007     148.70  <-- SCF
      7  -1.45354529E+003  4.89664884E+000   2.42764342E-006     150.81  <-- SCF
      8  -1.45354530E+003  4.89608358E+000   5.21665618E-006     152.72  <-- SCF
      9  -1.45354530E+003  4.89620557E+000  -1.35685186E-006     154.62  <-- SCF
     10  -1.45354530E+003  4.89624575E+000  -9.84200039E-008     156.55  <-- SCF
     11  -1.45354530E+003  4.89624442E+000   2.85015054E-008     158.52  <-- SCF
------------------------------------------------------------------------ <-- SCF
 
Integrated Spin Density     =    0.240760     hbar/2                        
Integrated |Spin Density|   =    0.282785     hbar/2                        
 
Final energy, E             =  -1453.534778352     eV
Final free energy (E-TS)    =  -1453.545296829     eV
(energies not corrected for finite basis set)
 
NB est. 0K energy (E-0.5TS)      =  -1453.540037591     eV
 
 
 ***************** Stress Tensor *****************
 *                                               *
 *          Cartesian components (GPa)           *
 * --------------------------------------------- *
 *             x             y             z     *
 *                                               *
 *  x     -0.059345      0.000000      0.000000  *
 *  y      0.000000     -0.059345      0.000000  *
 *  z      0.000000      0.000000     -0.059345  *
 *                                               *
 *  Pressure:    0.0593                          *
 *                                               *
 *************************************************
  
 +------------+-------------+-------------+-----------------+ <-- min BFGS
 |    Step    |   lambda    |   F.delta'  |    enthalpy     | <-- min BFGS
 +------------+-------------+-------------+-----------------+ <-- min BFGS
 |  previous  |    0.000000 |    0.013448 |    -1453.544274 | <-- min BFGS
 | trial step |    1.000000 |    0.008268 |    -1453.545053 | <-- min BFGS
 |  line step |    2.596161 |    0.000261 |    -1453.545198 | <-- min BFGS
 +------------+-------------+-------------+-----------------+ <-- min BFGS
  
 BFGS: finished iteration     1 with enthalpy= -1.45354520E+003 eV
  
 +-----------+-----------------+-----------------+------------+-----+ <-- BFGS
 | Parameter |      value      |    tolerance    |    units   | OK? | <-- BFGS
 +-----------+-----------------+-----------------+------------+-----+ <-- BFGS
 |  dE/ion   |   4.620541E-004 |   1.000000E-005 |         eV | No  | <-- BFGS
 |   Smax    |   5.934529E-002 |   5.000000E-002 |        GPa | No  | <-- BFGS
 +-----------+-----------------+-----------------+------------+-----+ <-- BFGS
  

================================================================================
 Starting BFGS iteration          2 ...
================================================================================
  
 +------------+-------------+-------------+-----------------+ <-- min BFGS
 |    Step    |   lambda    |   F.delta'  |    enthalpy     | <-- min BFGS
 +------------+-------------+-------------+-----------------+ <-- min BFGS
 |  previous  |    0.000000 |    0.000261 |    -1453.545198 | <-- min BFGS
 +------------+-------------+-------------+-----------------+ <-- min BFGS
  

--------------------------------------------------------------------------------
 BFGS: starting iteration         2 with trial guess (lambda=  1.000000)
--------------------------------------------------------------------------------
 
                           -------------------------------
                                      Unit Cell
                           -------------------------------
        Real Lattice(A)              Reciprocal Lattice(1/A)
   0.0000000   1.7716218   1.7716218       -1.7732863   1.7732863   1.7732863
   1.7716218   0.0000000   1.7716218        1.7732863  -1.7732863   1.7732863
   1.7716218   1.7716218  -0.0000000        1.7732863   1.7732863  -1.7732863
 
                       Lattice parameters(A)       Cell Angles
                    a =    2.505452          alpha =   60.000000
                    b =    2.505452          beta  =   60.000000
                    c =    2.505452          gamma =   60.000000
 
                Current cell volume =   11.120979 A**3
 
------------------------------------------------------------------------ <-- SCF
SCF loop      Energy           Fermi           Energy gain       Timer   <-- SCF
                               energy          per atom          (sec)   <-- SCF
------------------------------------------------------------------------ <-- SCF
Initial  -1.45353476E+003  0.00000000E+000                       159.86  <-- SCF
      1  -1.45354527E+003  4.87553138E+000   1.05133841E-002     162.91  <-- SCF
      2  -1.45354527E+003  4.87553138E+000   2.27138108E-008     164.81  <-- SCF
      3  -1.45354527E+003  4.90987058E+000  -3.53311049E-006     168.86  <-- SCF
      4  -1.45354521E+003  4.89315412E+000  -6.36786180E-005     172.42  <-- SCF
      5  -1.45354521E+003  4.89315140E+000   1.10022887E-006     174.56  <-- SCF
      6  -1.45354521E+003  4.89316478E+000  -2.03611460E-007     176.84  <-- SCF
      7  -1.45354521E+003  4.89315727E+000  -4.61870945E-008     179.16  <-- SCF
------------------------------------------------------------------------ <-- SCF
 
Integrated Spin Density     =    0.240786     hbar/2                        
Integrated |Spin Density|   =    0.282840     hbar/2                        
 
Final energy, E             =  -1453.534684184     eV
Final free energy (E-TS)    =  -1453.545207507     eV
(energies not corrected for finite basis set)
 
NB est. 0K energy (E-0.5TS)      =  -1453.539945845     eV
 
 
 ***************** Stress Tensor *****************
 *                                               *
 *          Cartesian components (GPa)           *
 * --------------------------------------------- *
 *             x             y             z     *
 *                                               *
 *  x      0.008431      0.000000      0.000000  *
 *  y      0.000000      0.008431      0.000000  *
 *  z      0.000000      0.000000      0.008431  *
 *                                               *
 *  Pressure:   -0.0084                          *
 *                                               *
 *************************************************
  
 +------------+-------------+-------------+-----------------+ <-- min BFGS
 |    Step    |   lambda    |   F.delta'  |    enthalpy     | <-- min BFGS
 +------------+-------------+-------------+-----------------+ <-- min BFGS
 |  previous  |    0.000000 |    0.000261 |    -1453.545198 | <-- min BFGS
 | trial step |    1.000000 |   -0.000037 |    -1453.545198 | <-- min BFGS
 +------------+-------------+-------------+-----------------+ <-- min BFGS
  
 BFGS: finished iteration     2 with enthalpy= -1.45354520E+003 eV
  
 +-----------+-----------------+-----------------+------------+-----+ <-- BFGS
 | Parameter |      value      |    tolerance    |    units   | OK? | <-- BFGS
 +-----------+-----------------+-----------------+------------+-----+ <-- BFGS
 |  dE/ion   |   6.186176E-008 |   1.000000E-005 |         eV | Yes | <-- BFGS
 |   Smax    |   8.431269E-003 |   5.000000E-002 |        GPa | Yes | <-- BFGS
 +-----------+-----------------+-----------------+------------+-----+ <-- BFGS
  
 BFGS: Geometry optimization completed successfully.

================================================================================
 BFGS: Final Configuration:
================================================================================
 
                           -------------------------------
                                      Unit Cell
                           -------------------------------
        Real Lattice(A)              Reciprocal Lattice(1/A)
   0.0000000   1.7716218   1.7716218       -1.7732863   1.7732863   1.7732863
   1.7716218   0.0000000   1.7716218        1.7732863  -1.7732863   1.7732863
   1.7716218   1.7716218  -0.0000000        1.7732863   1.7732863  -1.7732863
 
                       Lattice parameters(A)       Cell Angles
                    a =    2.505452          alpha =   60.000000
                    b =    2.505452          beta  =   60.000000
                    c =    2.505452          gamma =   60.000000
 
                Current cell volume =   11.120979 A**3
 
 BFGS: Final Enthalpy     = -1.45354520E+003 eV
 BFGS: Final bulk modulus =     299.65619 GPa
 
 ***************************** Symmetrised Forces *****************************
 *                                                                            *
 *                        Cartesian components (eV/A)                         *
 * -------------------------------------------------------------------------- *
 *                   x                    y                    z              *
 *                                                                            *
 * Ni        1      0.00000 (mixed)      0.00000 (mixed)      0.00000 (mixed) *
 * Cu        1      0.00000 (mixed)      0.00000 (mixed)      0.00000 (mixed) *
 *                                                                            *
 ******************************************************************************
 
 *********** Symmetrised Stress Tensor ***********
 *                                               *
 *          Cartesian components (GPa)           *
 * --------------------------------------------- *
 *             x             y             z     *
 *                                               *
 *  x      0.008431      0.000000      0.000000  *
 *  y      0.000000      0.008431      0.000000  *
 *  z      0.000000      0.000000      0.008431  *
 *                                               *
 *  Pressure:   -0.0084                          *
 *                                               *
 *************************************************

Writing analysis data to NiCu.castep_bin

Writing model to NiCu.check
 
 A BibTeX formatted list of references used in this run has been written to 
 NiCu.bib
 
Initialisation time =     17.53 s
Calculation time    =    162.89 s
Finalisation time   =      0.22 s
Total time          =    180.64 s
