#BIOSYM hessian 1
@Type: Hessian Update
@Units
 distance: 	A
 energy: 	Kcal/Mol
#header
@natom 19

#label
L1      L2      L3      L4      L5      L6      L7      L8      L9      L10     L11     L12     L13     L14     L15     L16     L17     L18     L19

#element
Li Li Li Li Li Li Li Li Li Li Li Li Li Li Li Li Li Li Li

#matrix
57
 1.580943450972E+01
 -2.443205393161E+00 1.591244639632E+01
 1.325740119543E+00 -7.299171248921E-01 1.094598745042E+01
 5.068041043228E-01 -2.522956899510E+00 2.094549157527E+00 1.490722201298E+01
 1.282330414577E-01 4.790915774415E-01 4.540092367982E-01 4.094056845921E+00 8.752656666536E+00
 -5.413371166578E-01 1.519917102899E-01 -6.592765740970E-01 2.498903212912E+00 7.190057073854E-01 1.965015779160E+00
 -2.454535731397E-01 -9.037607106582E-01 1.146313206984E+00 -4.453637659040E-01 -1.750088521830E-01 1.103066084728E+00 7.224668884865E+00
 -4.128494757023E-01 -5.719893312703E-01 3.862316293503E-01 1.284607790583E+00 -2.001671998979E-01 -1.188309039304E+00 1.218680298481E+00 1.157301461708E+01
 1.289827584013E-01 1.459980646058E+00 -2.107174093443E+00 2.509397068310E+00 -5.221779175130E-01 -1.218030565842E+00 -6.553800491795E+00 3.955027498936E+00 1.131651697688E+01
 1.446131955919E+00 -8.694344418076E-01 -3.916188628332E-01 -1.028418774102E+00 1.119850358180E+00 6.671434983961E-02 -1.837137536827E+00 -1.746227171583E+00 1.351861485541E+00 4.515058354862E+00
 7.184215587003E-01 1.128215411443E-01 6.618755741239E-01 1.837373129615E+00 6.520461265987E-02 -3.097037543375E-01 -1.027845905776E-01 1.045029902234E+00 1.127042715423E-01 -2.026305237694E+00 7.538354170645E+00
 -5.255513564655E-01 -1.621965021094E+00 1.902511691628E-01 -1.044771644594E+00 -1.218848629250E+00 1.691024528648E-01 8.983178704165E-01 1.845556101175E+00 9.303731207013E-01 8.444545001988E-01 3.690704002579E-01 5.747343042018E+00
 3.628557369411E-01 -3.180041938666E-01 2.990453763958E-01 1.926582546086E-01 -5.124299789143E-01 -2.076532248463E-01 3.659697886150E-01 -1.422810370197E-01 -2.454330086960E-01 -3.492899026163E-01 1.778620993052E-01 -8.617690528426E-03 4.823392241520E-01
 8.139629778750E-03 -1.936224384026E-01 3.646078393168E-02 -1.713687957808E-01 4.043488125718E-01 3.819872887828E-02 4.985374118101E-01 3.237048366057E-01 -4.495892196321E-01 -2.405915693150E-01 -3.275986535909E-01 -8.524283398510E-02 4.294704281854E-02 5.190864827875E-01
 1.046802906916E+00 -1.532284643704E+00 2.760314032755E-01 8.023237337693E-01 3.907324107814E-01 -4.381666489433E-01 -4.588347037853E-01 5.413495291428E-01 3.097090601314E-01 -1.744698817847E-02 -5.090818576234E-01 -5.806917004151E-01 1.207156410824E-02 -5.466323227309E-02 1.243989771253E+00
 2.490119462390E-01 -1.134320386461E+00 8.323088624238E-01 9.026408538118E-01 -3.529590503930E-01 1.403151111212E-01 8.630331795050E-01 -4.518350561753E-01 -8.773498336711E-01 3.490088712826E-01 1.271750740221E+00 4.132350631390E-01 -2.512332234618E-01 -5.822606590637E-01 -3.448179405667E-01 6.623534915381E+00
 -1.406095405958E+00 -4.703086548955E-01 -1.051085876223E+00 1.245930754424E+00 6.512955235341E-01 2.357373822254E-01 -6.134403316700E-01 8.272878740944E-01 9.018720269652E-01 1.697974652019E-01 -1.684767468333E+00 -1.648082873874E-01 1.853747487148E-01 5.538559192066E-02 1.513711869804E-01 -2.787969785428E+00 4.463211571363E+00
 -1.689198256531E+00 -1.207664583270E-01 -4.388092762820E+00 -1.302717798346E+00 -3.771924085171E-01 -1.307372316616E-01 -8.313073142443E-01 -7.163054836935E-01 1.521176970493E-01 -8.772029354450E-01 2.482284027675E+00 -7.640225526653E-01 -6.045201582921E-01 -2.561027345601E-01 -2.068582553210E-01 3.508673071453E+00 -4.466957589881E+00 1.104403107363E+01
 -2.193009027347E+00 7.170650557782E-01 6.960425790110E-01 1.164180023285E+00 5.438257298895E-01 1.857275943799E-01 -5.075701107679E-01 3.248257881454E-01 -3.409806224268E-01 -7.952524484661E-01 -2.215239001231E+00 -3.799949472302E-01 -3.247635543578E-01 3.193695610024E-01 7.289531013032E-01 2.242883973507E-01 -4.765570025190E-01 5.015704673380E-01 4.408013887238E+00
 -8.527329667757E-03 -1.467233857580E+00 2.880882625481E-01 -9.818789395426E-01 -4.204639237723E-01 3.328252744537E-01 5.190177204411E-01 -4.177584742362E-01 -1.735471625311E+00 1.907450920980E+00 7.106633683553E-01 -7.466174688132E-03 -2.903499552326E-01 -5.625906455623E-01 -7.352283323683E-01 2.511418154369E+00 5.391938755548E-02 6.290669234697E-01 -1.532114749130E+00 5.304282447252E+00
 1.358485421578E+00 2.795494956010E+00 -3.403080973035E+00 -1.456342343486E-01 -3.595757052566E-01 -8.199702035265E-01 8.986724954553E-01 6.828281428731E-01 -1.224285149068E-01 -1.711866754634E+00 -8.687455632466E-01 -1.257702867046E-01 9.223993992771E-01 1.320131623543E-01 2.543004005934E-01 6.601671234360E-01 -1.081616003476E-01 1.843705340407E+00 1.671770799689E+00 -2.577985417595E+00 1.108570291166E+01
 -1.479193924750E+00 1.436003582128E+00 -1.821590005703E-01 -4.223031028452E-01 3.625626206608E-04 2.661862266460E-01 2.729713932677E-01 1.093965213025E+00 6.972429893325E-01 1.141147723446E-01 2.472541422168E+00 4.890838058671E+00 -3.952026501962E-02 -3.916073856430E-01 -3.413479420665E-01 -6.448908873683E-01 8.674364167850E-01 -1.988843739206E+00 -9.326628980034E-01 -6.640712558106E-01 -6.198895152347E-01 9.120405778194E+00
 -4.981601079299E-01 1.334011265812E+00 8.026555709630E-01 5.243934982148E-01 5.965557454759E-01 -1.023195926589E+00 -9.721939296085E-01 2.425982339203E-01 8.555707179855E-01 1.009125917275E+00 1.635114111763E+00 -2.972346493918E+00 3.485730844799E-01 2.220928776635E-01 2.596930939845E-01 8.381416669704E-01 -3.298423497277E+00 2.341379619191E+00 2.114845578972E-01 -2.923895997191E-01 1.095421078750E+00 -3.135333219905E+00 1.426756447216E+01
 1.665034068910E+00 -1.250706837054E+00 -1.608837935591E+00 1.491615969660E+00 1.098207779424E+00 3.282657934717E-01 -4.086319855089E-01 -4.162288082772E-01 2.069000484389E-01 2.771707435397E+00 -6.460196848427E+00 -3.769748471399E+00 1.491874201094E-01 1.435299025879E-01 8.453107989957E-01 -4.322399534549E-02 5.072088058375E+00 -7.444926738517E+00 8.250609071656E-01 2.225011331022E+00 1.627984363432E+00 -5.108815891830E+00 1.331171215772E+00 2.007904662663E+01
 -7.884035831568E+00 3.459090776927E+00 -4.364520420564E+00 -5.092612140568E+00 3.929991278215E-01 1.069284720490E+00 3.032760833201E-01 -8.062999452664E-01 -1.193939537934E+00 -2.471303889297E-01 -1.200365052958E+00 -6.825495433635E-02 -8.931377700462E-01 3.780494090698E-01 -1.300737547711E+00 -1.768613154999E+00 3.838007052277E-01 2.814073023966E+00 7.571871406119E-01 4.215627202901E-01 -1.867784048154E+00 5.383228828502E-01 -9.119472259379E-01 -2.368941165616E+00 9.543347543027E+00
 -1.420291044019E+00 -1.938657723226E-01 -3.583076335516E-01 -6.715960399089E-01 8.689819685308E-01 3.169786972868E-01 1.574104732466E-01 4.173600622243E-01 -5.573175568521E-01 2.254431960791E-01 -4.120888838457E-01 -1.846596775832E-01 -4.229119504384E-01 1.019675498402E-01 -2.502300030715E-01 6.080221916511E-01 2.121485338430E-01 5.434425098464E-01 3.793331325736E-01 1.090250472053E+00 -1.080953117989E+00 -4.173846681592E-01 -5.320591564971E-01 4.853658201874E-01 2.069134357753E+00 1.324713444426E+00
 -1.574925920455E+00 -1.472609868056E-01 -2.381402364491E-02 3.735638932538E+00 -2.487050024969E-01 5.978677770715E-01 8.252577599832E-01 -5.280598530820E-01 -3.173442318795E-01 -1.331102739568E-01 1.797236324177E+00 3.164269146631E-01 5.081769157517E-01 -2.819112767551E-01 -5.288342136454E-01 8.212617569375E-01 4.960699264220E-01 -2.283807153864E-01 -1.131402068961E+00 5.371424117231E-01 8.363123525976E-01 5.853335865412E-01 4.316918608579E-01 -6.583142879305E-01 -1.504035339356E+00 -6.933823919507E-01 4.076853206110E+00
 -1.591595487214E-01 1.065994835966E+00 -1.505259673239E-01 -1.186387489068E-01 5.520626735480E-01 2.876996062660E-01 -3.825150355363E+00 -4.469524089242E+00 5.056600925580E-01 1.148515810047E+00 3.182891137387E-01 -8.482758754347E-01 -4.808354049020E-01 -3.764254212025E-01 -1.751531558295E-01 1.571856774680E-01 2.221752952572E-02 1.001653726993E+00 1.037066961076E+00 2.110089239954E-01 -3.834132540548E-01 -3.039075237909E-01 -7.068673541154E-01 -1.800474148052E-01 6.647149088444E-01 2.425861351308E-01 -2.911370375180E-01 5.097130634393E+00
 -1.018629378945E+00 1.162114253205E+00 7.706721564871E-01 -2.476715477845E+00 -1.670582767937E-01 4.652357793692E-02 -5.060593980599E+00 -7.609433343872E+00 -6.509899455547E-02 3.354770113269E+00 -3.622320132902E+00 -1.922710377106E+00 -5.060804077670E-01 -4.645296966716E-01 -3.049712021450E-02 -6.586505262607E-01 8.166611532432E-01 -2.512867698600E-01 9.761526855801E-01 1.017749933585E+00 -2.914938615776E+00 -1.258701954589E+00 -7.236059035765E-02 2.030524569892E+00 1.545350346614E+00 5.998079428304E-01 -8.087503201568E-01 5.645163789754E+00 1.254266795013E+01
 -8.764350295804E-01 -1.298680883100E+00 1.319692521208E+00 -1.917536868545E+00 4.220996709184E-01 -1.046790013947E-01 1.247561584477E+00 -3.979683226348E-02 -2.408926731591E+00 2.567156637247E+00 -3.958731589232E+00 -2.467009551940E-01 -3.767572695348E-01 3.012343879163E-01 7.951852870513E-01 -7.506815739337E-02 -9.083856129495E-02 -1.748873154328E+00 1.956414339017E+00 4.309248347016E-01 -1.370860421013E+00 -1.086844181966E+00 6.692795725759E-01 2.451998591182E+00 1.231511206498E+00 9.843881436836E-01 -5.198943007180E-01 -2.609362661735E-01 2.599153825131E+00 8.021975182835E+00
 -1.998379849965E+00 5.099585262086E+00 -2.023610715719E+00 -5.869613505085E-01 -6.484533400740E-01 -3.833968947180E-01 1.330966680688E-01 3.140221993722E-01 5.972865522054E-01 -4.856123597614E-01 3.687347111855E-01 3.997240718170E-01 4.827308590405E-03 -1.235723973839E-01 -3.452952213617E-01 -6.430372600063E-01 -1.694632963284E-02 -3.760761128034E-02 9.558162693096E-01 -1.724582098035E-01 1.384366489808E+00 2.055657794558E+00 9.928064190847E-01 -8.091326265418E-01 1.390649295343E+00 -2.092397091116E-01 5.084252035055E-01 -8.897452665446E-01 -1.205410941680E+00 -1.751432751056E-01 6.156525062855E+00
 6.847615196449E+00 -7.518020165498E+00 4.078105765988E+00 5.351916052911E+00 -2.675570182098E-01 -1.106494513252E-01 1.132314284601E+00 -3.488310575479E-01 -2.092328053527E+00 2.215415724484E-01 1.354103703470E+00 2.681754009516E-01 6.435903978121E-01 -3.253410367263E-01 1.628117026632E+00 9.794071577337E-01 1.109450144685E-01 -1.682753829792E+00 -6.646506550841E-01 5.589803549564E-01 5.892268447324E-01 -1.381872574051E-01 -1.070867332583E+00 5.045133212566E-01 -7.499756018929E+00 -1.249756243861E+00 1.667411212157E+00 -6.805646567274E-02 -8.011999153851E-01 6.495471922652E-01 -2.835562231545E+00 1.035898841723E+01
 -2.486915056131E+00 4.442037147471E+00 -2.666394215739E-01 -1.145854643620E+00 1.445242448595E+00 9.522269465904E-01 -8.732536230666E-01 -1.220528579436E+00 5.157695185255E-01 1.016309809304E+00 -1.867725637953E+00 -1.019084328741E+00 -7.613047203987E-01 6.790659471459E-02 -2.535727986013E-01 -7.747285533306E-01 -4.990097316454E-01 1.248518153337E+00 5.769583364825E-01 -6.414464747579E-01 -2.282878866120E+00 6.625965915320E-01 -6.638894449254E-02 -1.334070793763E+00 3.441329976072E+00 4.329388890540E-01 -1.339024321353E+00 1.075458303701E+00 3.140341028801E+00 1.270821399287E+00 -4.438080860098E-01 -3.314330626400E+00 5.846790419852E+00
 2.909005304177E-01 -3.275219340060E+00 7.950406534091E-01 -1.533428454929E+00 -8.755231156073E-01 6.950077665567E-01 8.425138770770E-01 5.003529460404E-01 2.624742008419E-01 1.702396689125E-01 3.832033769968E-01 1.469998201022E+00 7.192439762782E-01 -3.318837538996E-01 -8.322700131145E-01 8.693762192981E-01 1.024045324161E-01 -5.203266208906E-01 -3.069426640901E+00 -2.266694756230E-01 2.259137474395E+00 -1.524560434664E-01 -8.175650093119E-01 -1.151991241153E+00 -3.672347740927E-01 -3.680341704456E-01 6.697831803272E-01 -3.297232649708E-03 -8.456507506443E-01 -1.089934501692E+00 -7.353540650460E+00 8.697611398252E-01 3.308758798337E-01 1.932698740644E+01
 -1.334848493908E+00 -5.679823118864E+00 1.574097400017E-01 -1.433965157216E-01 -3.385461719418E-02 -1.567624299393E-02 -5.068050074929E-01 -4.312996800062E-01 9.559980378932E-01 -3.293252045282E-01 -1.529680254045E+00 4.970359139236E-01 2.658987865925E-01 -2.072879084398E-02 1.439621802970E+00 -1.755904958426E+00 2.364879457232E-01 -4.312009577167E-01 -3.615015709332E-01 -2.770025145755E+00 -2.149199265634E+00 5.799361077405E-01 -6.723805617623E-01 -1.045312599282E+00 -3.306603976850E-01 -1.061982284363E+00 -1.266486193015E+00 -8.873415146444E-01 2.903297050949E-01 -7.069313568121E-02 -4.058609395728E+00 7.604570404887E-01 1.451045321926E+00 6.884424005095E+00 1.082596748453E+01
 5.961504479209E-04 -1.085518144512E+00 2.838645661364E+00 1.139594664816E+00 -2.169291618506E-01 4.923286075666E-01 7.701023343005E-01 -5.343761104109E-01 3.009651410077E-01 -5.682307096289E-01 9.904634889051E-01 1.225995815475E+00 -2.038898675378E-01 5.587120560045E-01 -1.120126446305E+00 3.995175367667E-02 -5.356139615611E-01 -1.587456567877E+00 -1.448342778757E+00 -1.266923513174E+00 -4.576764993896E+00 8.991785228495E-02 -1.241936091009E+00 -1.656116272075E+00 -7.041628388535E-01 -1.676939954419E-01 1.181553275519E+00 6.640437665280E-02 2.100660684069E-01 -9.485470926917E-01 -1.832714062094E+00 3.384556943776E-02 5.130393528477E-01 -1.297498936372E+00 -1.387624267428E-03 1.146866832065E+01
 1.283170123951E+00 -7.190877551805E-01 -3.707243883011E-01 8.995468490221E-01 -3.729856134641E-01 -1.232850687615E+00 -2.867191497522E+00 -3.954470778907E-01 1.895009730214E+00 -2.337257241181E+00 4.463584174532E+00 -4.726577818673E+00 4.961511408353E-01 1.883616544241E-01 3.598077797705E-01 -7.029252143714E-01 1.886891120597E-01 1.023229094552E+00 -1.773285212353E+00 4.161083525078E-01 -8.425275568208E-01 -3.476283787989E+00 3.149214019004E+00 1.492473141026E-01 -4.577436729526E-01 1.072998928527E-01 8.555708444364E-01 4.372699534014E-01 -7.061268530347E-01 -1.617714563706E+00 -3.231882566673E-01 1.898729668907E-01 -2.249896299363E+00 1.195084642135E-01 -4.631887525382E-02 1.441431160508E-01 1.772934477446E+01
 1.283082734959E+00 -6.837362933744E-01 -3.689445001551E+00 -1.397567061880E+00 -1.742627608026E-01 1.071216267024E+00 6.924753415497E-01 -9.462829018556E-01 -5.910541036794E-02 2.987707564217E+00 5.304117538278E-02 4.543652640233E+00 -2.140174433546E-01 -1.534953406741E-01 -5.742200611836E-01 7.203714472117E-01 -1.255784340445E+00 1.220681899825E+00 -3.508464442058E-01 6.733568210565E-01 8.808690685015E-01 3.776803055344E+00 -1.526369603494E+00 -1.441365323246E+00 2.162246450125E-01 -9.735820986999E-01 8.418065283895E-01 6.514584724888E-01 -1.871132867444E+00 4.064956598691E-01 1.211529823885E+00 -7.428507801278E-02 5.259049715181E-01 1.965021277383E-01 9.502229638477E-02 9.706604582553E-01 -5.134223461876E+00 1.192706790875E+01
 -2.328131805469E-01 -5.635668190848E-01 1.697598656960E+00 4.754771918354E-01 -1.084203641790E-01 -4.887174037135E-02 1.436356734455E+00 8.508079955108E-01 -5.318444313700E+00 -6.304718943278E+00 6.401319378143E+00 -3.655637423913E+00 -3.956858685497E-02 2.118345440120E-01 4.420949824981E-01 -4.730328317695E-01 3.430469291771E-02 1.961849832578E+00 3.836326792874E-01 -5.125630377308E-02 -7.898603528132E-01 -2.434003295998E-01 -4.968197762405E-01 -3.247931751060E+00 8.253643564109E-01 7.094050696236E-01 -1.321773500887E+00 1.334224107861E+00 -2.410349528691E+00 -4.736325262879E+00 -1.489658797944E+00 1.662934928968E+00 -1.331085299338E+00 -1.268662191205E+00 -4.674625329524E-01 -2.525090031770E-01 6.608379363503E+00 -6.134775173106E+00 1.896947760685E+01
 -7.236958743923E-01 -6.577443112055E-01 2.391748014832E-01 -6.103448360808E-01 -1.066011094950E-01 -3.222081261326E-01 9.599922974555E-02 -4.986313738481E-01 1.097057567718E+00 1.513845033555E+00 -1.988530643736E+00 -2.435203576535E-01 -2.350761530679E-01 -4.793828279682E-01 2.789824486622E-01 -5.418780790172E-02 6.845531358198E-02 -4.172817437006E-01 -8.256824696478E-01 4.504037648324E-01 -2.238871261380E+00 -1.157233787526E+00 3.589803124648E-01 1.636478458686E+00 8.338900335048E-02 -7.469031467766E-02 -1.263481361432E+00 -9.248258978487E-01 4.827013901415E-01 -3.576341635269E-01 -1.183110149092E-01 -5.074156509738E-01 8.941743862879E-01 -8.188738948843E-01 1.365216790358E+00 -1.670325751465E+00 -8.441633404317E+00 -1.792358856112E+00 -2.942887911439E+00 1.175526769185E+01
 2.267780010550E-01 -8.764848628026E-01 5.991882784187E-01 5.472854185018E-01 -1.527582180515E-01 -7.944371350538E-01 -2.089821256570E+00 -7.795022819548E-01 2.743417544732E+00 -1.315864173395E+00 -2.707553825788E+00 1.008886098436E+00 -1.957241170643E-01 -2.188448625979E-01 1.071843972426E+00 -3.773587616392E-01 3.818314788065E-01 6.687578787767E-01 2.992694167127E+00 -3.418228109149E+00 2.454713425297E+00 -3.676671760024E-01 -8.623418989147E+00 -3.397936001323E+00 -6.830201699592E-01 -2.147969701676E-01 -1.927378602022E+00 1.615778623272E+00 6.475351668679E-01 5.288694613017E-02 -4.853542056714E-01 9.796256877435E-01 -1.963137854861E-01 -3.381443071787E-01 1.887825709287E+00 -2.149107127535E+00 -4.116883432107E+00 -1.886810660558E+00 -1.520683722657E+00 4.330742703483E+00 1.538066000578E+01
 1.212023629301E-01 1.674770706972E+00 6.165505496820E-02 2.023310865775E-01 5.949636949271E-01 8.402186396153E-01 2.207006024142E-01 -7.955101684218E-01 -3.406446774972E-02 4.366667956738E-01 1.882136874157E+00 4.704533993658E-01 -2.516749056928E-01 -3.573154727381E-01 -1.383396198910E+00 -4.230270717160E-01 4.627966672070E-01 1.558598665221E-01 -2.878683887574E+00 1.821541419413E+00 -3.546669270488E+00 9.208310211998E-01 -3.256893786588E+00 -3.713229402598E+00 1.452893871011E+00 4.875340871257E-01 1.292609917010E+00 2.724503805486E-01 8.797438068536E-01 -1.276049159034E+00 -9.194980216289E-02 -8.443351659205E-01 9.386551863596E-01 1.101157468673E+00 -1.565466271678E+00 1.920922098700E+00 -2.771621930179E-01 -3.278969430451E-01 -3.063080178344E-01 1.295044523495E+00 -2.026642744986E-01 5.375577770396E+00
 -5.645838138199E-01 4.877492166699E-01 -1.670523088533E+00 -1.422488664363E+00 -1.048339149971E+00 -3.187081074592E-01 -9.036974821684E-01 3.511212217385E+00 1.569670224310E+00 -8.685659490713E-01 -3.400320366125E+00 -1.126041442898E+00 3.506673302924E-02 7.731212145159E-01 2.537924243058E-01 -5.739500048243E+00 2.433641141204E+00 -1.084007691664E+00 9.743952829887E-01 -2.220192443293E+00 6.616263290615E-01 -3.604042140340E+00 -7.724340088635E-01 2.030686550501E+00 1.721282102395E+00 -3.350832556070E-01 -1.172454011061E+00 -2.970945345598E-01 6.329919223010E-01 -2.396381959799E-02 -1.144623379605E+00 -1.702355322395E+00 9.768123265502E-01 5.452536475837E-01 1.634887238398E+00 1.110793853672E+00 -9.248085899549E-01 -6.266747611860E-01 2.213882198623E-01 -3.651155216714E-01 2.025122134647E-01 -2.546176355461E-01 1.139714002508E+01
 -6.009441126305E-01 2.013341436295E+00 -3.748044156973E-01 -2.085487612920E+00 -1.733785560580E+00 1.483191242504E+00 5.347182509802E+00 -5.179835247472E+00 -6.766839686783E+00 -3.342355683628E+00 -3.029184359801E+00 -2.805408231227E+00 5.697840817383E-01 6.004134738517E-01 -8.322593536099E-01 4.294605029993E-01 2.736279895158E-01 -6.556948866048E-01 -2.814777097500E-01 -1.126055259550E+00 2.271615009642E+00 -3.068834232316E+00 -2.862088225267E+00 2.500857303012E+00 2.102473713300E+00 3.224827353114E-01 5.041492865306E-02 -1.884434764714E+00 5.449950329642E-01 -2.183844339446E-02 -5.036391002146E-01 -1.425263417323E+00 3.316194376673E-01 1.186414926175E+00 3.647125685518E-01 1.786982533954E+00 2.182364027487E+00 -5.186130618424E+00 2.658702427751E+00 -1.324984626012E+00 5.945840893560E-01 2.141440218939E-01 -7.685265120419E-01 1.580027748440E+01
 -9.599225367035E-01 1.192034243156E+00 -1.558873855339E-01 -1.396709614307E+00 6.611845888614E-01 1.133458183435E+00 2.603811375414E+00 -4.668574714596E+00 -4.161138889426E+00 8.688361160945E-01 -1.557936876736E+00 4.589643226356E-01 3.762987142740E-01 3.312902091526E-01 -5.640904126732E-01 -2.464171544933E+00 -1.088237259207E-02 -1.118322290562E+00 -7.649273249060E-01 -1.026082019260E+00 2.704092690438E-01 8.406191247301E-01 -3.170700563014E-01 -1.983790932045E+00 1.905569339010E+00 -5.628663521790E-01 9.342765405506E-01 -9.957933600865E-02 1.635290255130E+00 1.796637294335E+00 4.975191672104E-01 -2.384992756857E-01 1.375720481126E+00 9.006860743794E-01 8.673637255390E-01 4.462090519651E-01 -2.603168673781E+00 1.941406844715E+00 -2.985037969338E+00 5.650905363597E-01 -5.120276207030E-01 1.203757798138E+00 4.106130223873E-01 3.950286565357E+00 6.227575491057E+00
 -3.393341888097E+00 -2.014851640235E+00 7.614909052255E-01 -5.493607885965E+00 -2.973972500792E-02 -2.499148115713E+00 9.558010376783E-01 -4.610832351361E-01 -2.021826553836E+00 -1.900462823145E-01 5.794587733357E-01 1.031218551456E+00 4.480846733397E-01 1.785554604336E-01 -7.652851596819E-02 5.363651979605E-01 -1.620109592422E-01 -3.844102236878E-01 -4.247316054923E-01 2.140636362969E-01 7.672350662970E-01 1.220911101346E+00 1.206408846104E+00 -1.133986778354E+00 1.083723336397E+00 3.015865405674E-01 -1.166665873702E-01 -8.864185298319E-01 -2.318938136400E-01 1.160869816607E+00 1.314362280327E+00 -1.173293203957E+00 -2.355850051032E+00 -8.668058109653E-01 -1.309634741273E-02 1.236321099043E-03 5.116231117083E-01 -8.319903202273E-01 -1.052619100442E-01 7.060214812640E-01 2.241874048650E-01 -9.974324701540E-01 -2.462440822348E+00 2.395289678654E-01 6.463897343193E-01 8.010359741029E+00
 -1.828640421330E-01 -7.707417621848E-01 8.231632247212E-02 -3.000301045788E-01 -8.934542834369E-01 -1.203963383590E-01 5.197312317070E-01 4.076545865701E-01 5.075874720494E-02 -2.920683450893E-01 -1.233008030213E-01 7.351556165815E-01 1.425271547981E-01 1.219196287918E-02 -1.419945455906E-01 5.637626757946E-01 -2.125054766704E-01 3.913976477159E-02 -1.264217915853E-01 -1.921078707494E-01 3.539689335248E-01 4.183098230316E-01 1.531251177397E-02 -3.342904815462E-01 -4.075368400204E-01 -1.503858219040E-01 2.290918810984E-01 -5.994246343306E-01 -4.881968696758E-01 -2.753736022388E-01 -7.403039758474E-02 1.701007682479E-01 -4.612417613997E-01 6.089861089430E-01 3.667721463937E-01 7.931639748822E-01 -6.638547018492E-01 2.072028640208E-01 -5.956965343156E-01 -4.583840827804E-02 -1.777013921251E-01 -2.326298447236E-01 -2.638012880226E-01 5.496788431543E-01 -1.373839330486E-01 6.200986525032E-01 6.105918681398E-01
 2.060832376085E+00 -3.209406713052E-01 -1.063321222967E+00 -5.512594632197E+00 4.257887722408E-01 -2.560922032313E+00 -1.560803597515E+00 9.969185125263E-01 7.801195747985E-01 4.779268781309E-01 -6.010131284729E-01 -7.962718087998E-01 -3.201537179405E-01 5.922794668724E-02 1.357528587209E+00 -2.686310192951E-02 -1.198351086948E+00 1.378773079471E+00 1.199995416892E+00 -3.646388873257E-01 5.275246988715E-01 -2.207989720393E-01 1.082197187143E+00 3.149834874686E-01 2.609286740225E-01 2.163051766349E-01 -3.888241506986E+00 -3.047585658397E-01 -4.310337945165E-01 1.180836240018E+00 1.721870082140E+00 -1.403072589133E+00 -3.950934816378E-01 -4.236749970789E+00 6.375604787909E-01 -3.778068747489E+00 8.823938772476E-01 -3.999268423634E-01 9.796370180830E-01 1.905251079035E+00 2.932772923041E+00 -2.584665996845E+00 -1.131197334218E+00 -2.402122197791E+00 -1.944155645796E+00 3.577773669266E+00 -3.549720967511E-01 8.186945896299E+00
 -1.614296587246E-01 -1.034918654937E+00 4.541073866672E-01 1.409081416570E+00 -2.343158551839E-01 3.890399703806E-01 -3.437522657259E-02 -7.573295312196E-02 1.668076686586E-01 -6.244680956315E-01 -8.793564660172E-01 1.081354066365E+00 1.110527926867E-01 1.149172848287E-01 -8.905413072172E-03 -3.147098254010E-01 3.065212958804E-01 -4.731903181014E-01 9.398491932308E-01 3.504407594715E-01 -9.784321636362E-01 7.387652141749E-01 -6.905545930863E-01 -6.978656982282E-02 -7.171970042465E-01 -3.282310006412E-01 -3.567220968736E-01 -9.442225786167E-01 1.484700985773E-01 -2.234717269834E+00 1.829888037575E+00 -5.029764740643E-01 -9.123981272289E-01 -3.474689870257E+00 7.191001067342E-01 -1.505821346184E-01 -3.556928195180E-01 1.970389706218E-01 -3.566709544465E-01 -9.284754014974E-01 -5.336197323889E-01 -4.402026565417E-01 7.204099188538E-01 7.275844530971E-01 -4.459891479578E-01 -3.664098576991E-01 4.381563208147E-01 1.105049931170E-01 5.684613986675E+00
 -2.065095246990E+00 2.943281759760E+00 -8.552680157411E-01 -1.021454053168E+00 -5.728899758268E-01 -5.300707721456E-01 -3.444056168853E-01 1.392822546241E+00 1.556514034160E+00 -1.318298608106E+00 7.927986219931E-01 4.754579455152E-01 1.864723471585E-01 -4.642723845704E-01 -9.720659981933E-01 1.795588406111E+00 -7.748784899015E-01 -1.326274291102E-01 2.429417630658E-01 5.713293010127E-02 -4.969734191226E-01 -8.619539778915E-01 -2.204182583593E-01 -2.767567724426E-01 9.289466427634E-02 -3.382376460133E-01 5.222083316425E-01 -5.418201026497E-01 -1.852441594740E+00 -2.018715652064E+00 2.513840306986E+00 -4.994256580958E+00 -1.690763324300E+00 3.073385761529E-01 2.568985075646E-01 5.034791763924E-01 1.034990630794E-01 1.220759302837E+00 -1.432704774561E+00 3.691234180159E-01 5.488863539917E-01 1.119260770860E+00 5.064150757820E-02 -1.152628548119E+00 -2.058579382041E+00 1.630175085807E+00 4.663435297155E-01 9.733924648998E-01 2.473855981340E+00 1.278366672699E+01
 2.476315686503E-01 -1.084872439845E+00 -8.875505929328E-01 -7.739480840385E-01 -7.023094500975E-01 -5.638684357574E-02 -4.695687935594E-01 3.070926108243E-01 1.636204264919E+00 -1.649457318252E-02 -5.558910404102E-01 1.052620286338E+00 1.261847540396E-01 1.292589807508E-01 -5.431779402298E-01 -2.942825010410E-01 -2.384069308818E-01 2.156124375605E+00 -5.666929670428E-01 1.334426994516E+00 9.286594775404E-01 -3.484841476346E-01 6.402890173205E-01 -4.945967096544E-01 4.958875667080E-01 -1.426409574847E-01 -1.336926575580E+00 -1.477098542225E+00 -1.210134511364E+00 -4.642400961488E+00 8.083268467085E-01 -1.188968867410E+00 -7.883235392373E-01 -1.327853609513E+00 -7.436443374325E-02 -1.864011249030E+00 -3.433498033435E-01 -3.415914016844E-01 -5.560012155073E-01 1.220021835097E+00 -3.364216304589E-01 -4.686849196071E-01 1.052527753685E+00 8.989563877017E-01 -5.237016702709E-01 -3.415575596333E-01 3.259114949588E-01 8.629487240118E-01 4.766410316711E+00 -1.322058055167E+00 9.946206008764E+00
 -2.709730872464E+00 2.749758480407E+00 3.338178315779E+00 1.252124551749E-02 7.476766601263E-01 -1.507482324636E+00 -7.270507436610E-02 -8.315415528316E-01 -1.236283871541E+00 -3.918202643726E-01 8.744537541231E-01 -9.653167093001E-01 1.121424585729E-01 -6.742292627435E-03 -1.610856785266E-01 1.555478881216E-01 1.922775665487E-01 -4.040665193322E-01 2.764961268075E-01 2.618010164564E-01 -2.058154283254E-01 -9.975734512373E-01 -3.668160744587E-02 3.288503794398E-01 -1.311442194957E+00 -4.644002176402E-01 1.695131238937E+00 8.896224824557E-01 9.371004382306E-01 -4.162194912605E-02 1.456319733685E+00 3.585483167821E-01 -2.695826623706E-01 -5.752261067672E+00 -3.155307933016E+00 4.194496339892E+00 8.597367157114E-01 -3.584659138736E-01 1.001181794623E+00 -8.801002927121E-01 -2.009772241603E-01 1.586058834785E-01 7.463112638291E-01 -3.140296965012E-01 2.353685727221E-01 2.579588703993E+00 -2.512061738655E-01 -1.489273664573E-01 -5.426526089980E-01 3.939385890490E-01 -1.215283976741E+00 9.147312049653E+00
 2.985264643181E+00 -3.898236372652E+00 -1.226966578943E+00 -1.881789883689E+00 7.276497331399E-03 4.041134527354E-01 -4.551657000006E-06 -6.887959999701E-01 -3.049708612701E-01 1.470917552391E+00 -8.138721138779E-01 1.187914441561E+00 -3.288543118209E-01 9.196159367137E-01 -5.415883323266E-01 -1.354405003111E+00 9.236542409863E-02 4.339379846880E-01 -2.812602029964E-01 1.124388157502E+00 -1.715792652184E-01 -6.304112461516E-01 5.548310716136E-01 7.456367083394E-01 1.648046530816E+00 1.098698020853E+00 -1.685140220651E+00 2.143649034563E-01 3.228221181682E-01 -3.389705320324E-01 -6.180644539453E-01 9.799319019131E-01 -1.178983695828E+00 -2.804404925321E+00 -3.402984122176E+00 1.837946935375E+00 1.523629461307E-01 9.069658092909E-01 -2.210137336237E-01 -1.033335295120E+00 -1.645975685675E+00 -6.025821042187E-01 1.201929589349E+00 5.352543666725E-01 6.869434564017E-01 1.604362091328E-01 1.456806951760E-03 2.409477672578E-01 9.577860797200E-01 -6.848285382726E+00 5.408810267377E+00 -1.462192656918E+00 1.166076193936E+01
 1.229899570776E+00 -3.088539208738E+00 -2.547715096380E+00 -3.531564385183E-01 -9.753074365820E-01 -1.570859454038E-01 6.731569292703E-01 7.250490109261E-02 -1.614295308111E+00 -3.370906337539E-01 1.627805760659E+00 -7.300030003624E-02 6.216815102585E-01 -4.099545386101E-01 6.739330364852E-01 -1.371972123666E+00 1.410680821875E+00 -2.826317222685E+00 -5.541561822247E-01 7.735743588571E-01 -6.707608011882E-01 1.053935894380E+00 -9.975386336396E-01 2.109922358408E-01 -2.577982601075E-01 -1.399925537887E-01 7.580699891816E-01 -7.445566691396E-01 -1.796806056442E+00 2.048947330593E+00 2.212128929215E+00 7.883101143521E-01 -3.963642379695E+00 1.279390089618E+00 1.447579828377E+00 -6.289399843919E+00 2.487277164561E+00 2.987872186583E-01 8.730343392323E-01 8.158817103158E-01 9.825192998739E-01 8.191565389109E-01 -1.926925104874E+00 -2.121206364840E+00 4.026607319895E-01 2.083358086131E+00 -4.021791747272E-01 2.443502883735E+00 7.779144783872E-02 6.033026510047E+00 -4.227635647546E+00 -4.945248857327E+00 -4.673200307983E+00 1.611393181245E+01