#BIOSYM hessian 1
@Type: Hessian Update
@Units
 distance: 	A
 energy: 	Kcal/Mol
#header
@natom 6

#label
L1      L2      L3      L4      L5      L6

#element
Li Li Li Li Li Li

#matrix
18
 1.946217443050E+03
 5.511046104427E+01 2.202633455040E+03
 -7.454098031994E+01 1.952563988875E+00 2.172065226282E+03
 4.748540895882E+02 2.583450933170E+01 1.775423304797E+02 1.009564069927E+03
 2.480863200824E+01 -2.119934828027E+01 -1.131694564568E+01 2.731608450072E+01 2.227287157406E+03
 -1.677373810167E+02 6.784801773427E+00 -4.243814696366E+01 3.699108161714E+02 2.050555083795E+00 2.121014894316E+03
 -1.018295951116E+02 -1.082999329843E+02 -8.945860794469E+01 6.804083957624E+02 -6.637097849575E+01 -1.680515739014E+02 1.632300296717E+03
 -1.351876634817E+02 4.550833851741E+01 -1.532073562472E+01 1.347310640914E+02 2.556811525818E+01 -6.189908477179E+01 4.666588004723E+01 2.161303079222E+03
 1.897090540718E+02 -1.111673119312E+01 4.400389893314E+01 -4.026412519666E+02 -5.342993778522E+00 1.331318067075E+02 1.723043928677E+02 7.332486780301E+01 2.092704873870E+03
 -8.397283765637E+01 4.235938556119E+01 -2.718290277035E+00 2.319875127518E+01 2.513593047534E+01 -2.615818350903E+01 9.631579437874E+01 -6.008748624984E+01 3.287891247912E+01 2.190824222824E+03
 -2.836448808005E+02 1.338641840135E+02 -2.251121667540E+01 1.207123694567E+02 7.658577710807E+01 -9.444666447281E+01 2.783095150154E+02 -1.940954962155E+02 1.169859181579E+02 -1.598535877866E+02 1.728100091676E+03
 -9.815128562765E+01 9.504570805619E+01 4.659199416926E+01 -1.623389484513E+02 6.326822850000E+01 1.726676266377E+00 3.246216080640E+02 -1.113308099237E+02 9.900251707440E+00 -1.082212946019E+02 -3.329066927715E+02 1.959715434833E+03
 -9.069201319540E+01 3.135613865672E+01 -1.246550950648E+01 8.953974494258E+01 1.680204064258E+01 -4.053093176231E+01 3.267570575270E+01 -5.384781532243E+01 4.866143601015E+01 -4.188399515376E+01 -1.346838857324E+02 -7.632054978408E+01 2.204989947772E+03
 3.322735889401E+01 1.760344924403E+01 2.105961976487E+01 -1.517007010435E+02 1.154979322903E+01 3.959557448320E+01 1.199121994884E+02 -1.997797522147E+00 -4.176075324739E+01 -1.337469008145E+01 -3.669447902245E+01 -5.524792339349E+01 -1.676772130261E+00 2.216479756653E+03
 2.185764812303E+01 8.316042614472E+00 5.123054843731E+01 -9.477533859703E+01 1.556023014841E+01 1.366968640591E+01 7.418423028481E+01 -8.688927230011E+00 -1.189970983217E+01 -1.178925729821E+01 -2.796474618934E+01 -6.232782776574E+01 -4.568626135255E+00 -1.513739671051E+01 2.197499908464E+03
 9.626903404648E+01 -4.636056160957E+01 1.641057568427E+00 -3.671893077410E+01 -2.769170913115E+01 3.256725401801E+01 -9.902447677850E+01 6.772602091533E+01 -4.091254346222E+01 5.636418505299E+01 1.791604698474E+02 1.204104704010E+02 4.621673060276E+01 1.361260487277E+01 1.509134362268E+01 2.177739578571E+03
 3.056860923350E+02 -1.375639578139E+02 2.613671419042E+01 -1.568933263368E+02 -7.894537400021E+01 1.079148179045E+02 -2.702166830706E+02 2.045598814608E+02 -1.320903077423E+02 1.658204480814E+02 5.330860431604E+02 3.411714895336E+02 1.420502938858E+02 3.390539813921E+01 2.791479736843E+01 -1.864468248949E+02 1.685804129775E+03
 1.288629447699E+02 -1.009823852400E+02 -3.060740013700E+01 1.123023923635E+02 -6.421907430796E+01 1.374120398848E+01 -3.136000493706E+02 1.239146897472E+02 -2.699500066506E+01 1.160081132071E+02 3.608434019514E+02 2.852395915104E+02 8.522418117800E+01 5.149087910341E+01 5.267351501086E+01 -1.287975821479E+02 -3.710475112547E+02 1.946794211013E+03

