 Job started on host DESKTOP-5CQNRD0
 at Wed Oct  2 11:28:57 2019

 +-------------------------------------------------+
 |                                                 |
 |      CCC   AA    SSS  TTTTT  EEEEE  PPPP        |
 |     C     A  A  S       T    E      P   P       |
 |     C     AAAA   SS     T    EEE    PPPP        |
 |     C     A  A     S    T    E      P           |
 |      CCC  A  A  SSS     T    EEEEE  P           |
 |                                                 |
 +-------------------------------------------------+
 |                                                 |
 | Materials Studio CASTEP version 2017            |
 | Ab Initio Total Energy Program                  |
 |                                                 |
 | Authors:                                        |
 | M. Segall, M. Probert, C. Pickard, P. Hasnip,   |
 | S. Clark, K. Refson, J. R. Yates, M. Payne      |
 |                                                 |
 | Contributors:                                   |
 | P. Lindan, P. Haynes, J. White, V. Milman,      |
 | N. Govind, M. Gibson, P. Tulip, V. Cocula,      |
 | B. Montanari, D. Quigley, M. Glover,            |
 | L. Bernasconi, A. Perlov, M. Plummer,           |
 | E. McNellis, J. Meyer, J. Gale, D. Jochym       |
 | J. Aarons, B. Walker, R. Gillen, D. Jones       |
 | T. Green, I. J. Bush, C. J. Armstrong,          |
 | E. J. Higgins, E. L. Brown, M. S. McFly         |
 |                                                 |
 | Copyright (c) 2000 - 2016                       |
 |                                                 |
 | Please cite                                     |
 |                                                 |
 |     "First principles methods using CASTEP"     |
 |                                                 |
 |         Zeitschrift fuer Kristallographie       |
 |           220(5-6) pp. 567-570 (2005)           |
 |                                                 |
 | S. J. Clark, M. D. Segall, C. J. Pickard,       |
 | P. J. Hasnip, M. J. Probert, K. Refson,         |
 | M. C. Payne                                     |
 |                                                 |
 |       in all publications arising from          |
 |              your use of CASTEP                 |
 |                                                 |
 +-------------------------------------------------+
 
 
 This version was compiled for x86_64-windows-msvc2008 on May 05 2016
 Intel(R) Math Kernel Library Version 11.1.2 
 Fundamental constants values: CODATA 2010
 
License checkout of MS_castep successful
 
 
 Atomic calculation performed for O: 1s2 2s2 2p4
 
 Converged in 61 iterations to an ae energy of -2040.902 eV
 
 Identity difference: 4.10E-04
 
   ============================================================                
   | Pseudopotential Report - Date of generation  2-10-2019   |                
   ------------------------------------------------------------                
   | Element: O Ionic charge:  6.00 Level of theory: PBE      |                
   | Atomic Solver: Koelling-Harmon                           |                
   |                                                          |                
   |               Reference Electronic Structure             |                
   |         Orbital         Occupation         Energy        |                
   |            2s              2.000           -0.881        |                
   |            2p              4.000           -0.332        |                
   |                                                          |                
   |                 Pseudopotential Definition               |                
   |        Beta     l      e      Rc     scheme   norm       |                
   |          1      0   -0.881   1.100     qc      0         |                
   |          2      0    0.250   1.100     qc      0         |                
   |          3      1   -0.332   1.100     qc      0         |                
   |          4      1    0.250   1.100     qc      0         |                
   |         loc     2    0.000   1.100     pn      0         |                
   |                                                          |                
   | Augmentation charge Rinner = 0.769                       |                
   | Partial core correction Rc = 0.769                       |                
   ------------------------------------------------------------                
   | "2|1.1|14|18|21|20UU:21UU(qc=7)[]"                       |                
   ------------------------------------------------------------                
   |      Author: Chris J. Pickard, Cambridge University      |                
   ============================================================                
 
 Doing a self consistent calculation for the test configuration
 
 Atomic calculation performed for O: 1s2 2s2 2p4
 
 Converged in 61 iterations to an ae energy of -2040.902 eV
 
 ---------------------------------------
 AE eigenvalue nl 10 =      -18.91475256
 AE eigenvalue nl 20 =       -0.88057101
 AE eigenvalue nl 21 =       -0.33186952
 ---------------------------------------
 PS eigenvalue nl 20 =       -0.88059206
 PS eigenvalue nl 21 =       -0.33182157
 ---------------------------------------
 Maximum eigenvalue error:   4.80E-05
 
 Derived cutoff energies: C=  14 M=  17 F=  20 E=  22
 
 
 ***************************************
 
 Pseudo atomic calculation performed for O 2s2 2p4
 
 Converged in 24 iterations to a total energy of -432.6196 eV
 
 Calculation not parallelised.

 ************************************ Title ************************************
 CASTEP calculation from Materials Studio

 ***************************** General Parameters ******************************
  
 output verbosity                               : normal  (1)
 write checkpoint data to                       : O2.check
 type of calculation                            : single point energy
 stress calculation                             : off
 density difference calculation                 : off
 electron localisation func (ELF) calculation   : off
 Hirshfeld analysis                             : off
 unlimited duration calculation
 timing information                             : on
 memory usage estimate                          : on
 write final potential to formatted file        : off
 write final density to formatted file          : off
 write BibTeX reference list                    : on
 write OTFG pseudopotential files               : on
 checkpoint writing                             : both castep_bin and check files
  
 output         length unit                     : A
 output           mass unit                     : amu
 output           time unit                     : ps
 output         charge unit                     : e
 output           spin unit                     : hbar/2
 output         energy unit                     : eV
 output          force unit                     : eV/A
 output       velocity unit                     : A/ps
 output       pressure unit                     : GPa
 output     inv_length unit                     : 1/A
 output      frequency unit                     : cm-1
 output force constant unit                     : eV/A**2
 output         volume unit                     : A**3
 output   IR intensity unit                     : (D/A)**2/amu
 output         dipole unit                     : D
 output         efield unit                     : eV/A/e
 output        entropy unit                     : J/mol/K
  
 wavefunctions paging                           : none
 random number generator seed                   : randomised (112908747)
 data distribution                              : optimal for this architecture
 optimization strategy                          : maximize speed(+++)

 *********************** Exchange-Correlation Parameters ***********************
  
 using functional                               : Perdew Wang (1991)
 relativistic treatment                         : Koelling-Harmon
 DFT+D: Semi-empirical dispersion correction    : off

 ************************* Pseudopotential Parameters **************************
  
 pseudopotential representation                 : reciprocal space
 <beta|phi> representation                      : reciprocal space
 spin-orbit coupling                            : off

 **************************** Basis Set Parameters *****************************
  
 plane wave basis set cut-off                   :   571.4000   eV
 size of standard grid                          :     1.7500
 size of   fine   grid                          :     2.1000
 size of   fine   gmax                          :    25.7175   1/A
 largest prime factor in FFT                    :          5
 finite basis set correction                    : none

 **************************** Electronic Parameters ****************************
  
 number of  electrons                           :  12.00    
 net charge of system                           :  0.000    
 treating system as non-spin-polarized
 number of bands                                :         10

 ********************* Electronic Minimization Parameters **********************
  
 Method: Treating system as metallic with density mixing treatment of electrons,
         and number of  SD  steps               :          1
         and number of  CG  steps               :          4
  
 total energy / atom convergence tol.           : 0.1000E-05   eV
 eigen-energy convergence tolerance             : 0.2000E-06   eV
 max force / atom convergence tol.              : ignored
 convergence tolerance window                   :          3   cycles
 max. number of SCF cycles                      :        100
 number of fixed-spin iterations                :         10
 smearing scheme                                : Gaussian
 smearing width                                 : 0.1000       eV
 Fermi energy convergence tolerance             : 0.2721E-13   eV
 periodic dipole correction                     : NONE

 ************************** Density Mixing Parameters **************************
  
 density-mixing scheme                          : Pulay
 max. length of mixing history                  :         20
 charge density mixing amplitude                : 0.5000    
 cut-off energy for mixing                      :  571.4       eV
 charge density mixing g-vector                 :  1.500       1/A

 *******************************************************************************
  
 
                           -------------------------------
                                      Unit Cell
                           -------------------------------
        Real Lattice(A)                      Reciprocal Lattice(1/A)
  10.0000000   0.0000000   0.0000000        0.6283185   0.0000000   0.0000000
   0.0000000  10.0000000   0.0000000        0.0000000   0.6283185   0.0000000
   0.0000000   0.0000000  10.0000000        0.0000000   0.0000000   0.6283185
 
                       Lattice parameters(A)       Cell Angles
                    a =   10.000000          alpha =   90.000000
                    b =   10.000000          beta  =   90.000000
                    c =   10.000000          gamma =   90.000000
 
                       Current cell volume = 1000.000000       A**3
 
                           -------------------------------
                                     Cell Contents
                           -------------------------------
                         Total number of ions in cell =    2
                      Total number of species in cell =    1
                        Max number of any one species =    2
 
            xxxxxxxxxxxxxxxxxxxxxxxxxxxxxxxxxxxxxxxxxxxxxxxxxxxxxxxxxxxx
            x  Element    Atom        Fractional coordinates of atoms  x
            x            Number           u          v          w      x
            x----------------------------------------------------------x
            x  O            1         0.500000   0.500000   0.500000   x 
            x  O            2         0.500000   0.500000   0.600000   x 
            xxxxxxxxxxxxxxxxxxxxxxxxxxxxxxxxxxxxxxxxxxxxxxxxxxxxxxxxxxxx
 
 
                         No user defined ionic velocities
 
                           -------------------------------
                                   Details of Species
                           -------------------------------
 
                               Mass of species in AMU
                                    O   15.9989996
 
                          Electric Quadrupole Moment (Barn)
                                    O   -0.0255800 Isotope 17
 
                          Files used for pseudopotentials:
                                    O 2|1.1|14|18|21|20UU:21UU(qc=7)[]
 
                           -------------------------------
                              k-Points For BZ Sampling
                           -------------------------------
                       MP grid size for SCF calculation is  1  1  1
                            with an offset of   0.000  0.000  0.000
                       Number of kpoints used =             1
 
                           -------------------------------
                               Symmetry and Constraints
                           -------------------------------
 
                      Maximum deviation from symmetry =  0.00000         ANG
 
         There are no symmetry operations specified or generated for this cell
         There are no ionic constraints specified or generated for this cell
                      Point group of crystal =     1: C1, 1, 1
                      Space group of crystal =   123: P4/mmm, -P 4 2
 
 
                         Centre of mass is NOT constrained
 
                         Number of cell constraints= 0
                         Cell constraints are:  1 2 3 4 5 6
 
                         External pressure/stress (GPa)
                          0.00000   0.00000   0.00000
                                    0.00000   0.00000
                                              0.00000
  
+---------------- MEMORY AND SCRATCH DISK ESTIMATES PER PROCESS --------------+
|                                                     Memory          Disk    |
| Baseline code, static data and system overhead        0.0 MB         0.0 MB |
| BLAS internal memory storage                          0.0 MB         0.0 MB |
| Model and support data                              344.9 MB         0.0 MB |
| Electronic energy minimisation requirements          83.8 MB         0.0 MB |
| Force calculation requirements                       97.5 MB         0.0 MB |
|                                               ----------------------------- |
| Approx. total storage required per process          442.5 MB         0.0 MB |
|                                                                             |
| Requirements will fluctuate during execution and may exceed these estimates |
+-----------------------------------------------------------------------------+
------------------------------------------------------------------------ <-- SCF
SCF loop      Energy           Fermi           Energy gain       Timer   <-- SCF
                               energy          per atom          (sec)   <-- SCF
------------------------------------------------------------------------ <-- SCF
Initial  -8.04426374E+002  0.00000000E+000                         5.33  <-- SCF
      1  -8.05567302E+002  5.34604603E+000   5.70464048E-001       6.31  <-- SCF
      2  -8.69180421E+002 -2.92510928E-001   3.18065596E+001       8.39  <-- SCF
      3  -8.72680870E+002 -5.08620298E+000   1.75022428E+000       9.16  <-- SCF
      4  -8.72100957E+002 -4.00346537E+000  -2.89956689E-001      10.98  <-- SCF
      5  -8.72049088E+002 -3.77736540E+000  -2.59344393E-002      12.91  <-- SCF
      6  -8.71875274E+002 -3.66256944E+000  -8.69066921E-002      14.84  <-- SCF
      7  -8.72092061E+002 -3.66372619E+000   1.08393529E-001      16.75  <-- SCF
      8  -8.71978686E+002 -3.65853470E+000  -5.66878808E-002      18.61  <-- SCF
      9  -8.72103985E+002 -3.65221577E+000   6.26497125E-002      20.42  <-- SCF
     10  -8.72107197E+002 -3.64157104E+000   1.60586429E-003      22.31  <-- SCF
     11  -8.72101883E+002 -3.64112492E+000  -2.65705664E-003      24.00  <-- SCF
     12  -8.72121028E+002 -3.63880802E+000   9.57285029E-003      25.88  <-- SCF
     13  -8.72119480E+002 -3.64203301E+000  -7.74176056E-004      27.73  <-- SCF
     14  -8.72121447E+002 -3.64376969E+000   9.83727342E-004      29.61  <-- SCF
     15  -8.72123356E+002 -3.64506093E+000   9.54392456E-004      31.50  <-- SCF
     16  -8.72122562E+002 -3.65219709E+000  -3.96977768E-004      33.39  <-- SCF
     17  -8.72122948E+002 -3.65278222E+000   1.92910691E-004      35.33  <-- SCF
     18  -8.72123588E+002 -3.65396574E+000   3.19820319E-004      37.19  <-- SCF
     19  -8.72122603E+002 -3.65487678E+000  -4.92134885E-004      39.08  <-- SCF
     20  -8.72122448E+002 -3.65538752E+000  -7.75832093E-005      40.97  <-- SCF
     21  -8.72122725E+002 -3.65598399E+000   1.38219792E-004      42.94  <-- SCF
     22  -8.72122235E+002 -3.65608250E+000  -2.44864756E-004      44.86  <-- SCF
     23  -8.72122278E+002 -3.65605096E+000   2.13334089E-005      46.69  <-- SCF
     24  -8.72122230E+002 -3.65641311E+000  -2.38828305E-005      48.55  <-- SCF
     25  -8.72122232E+002 -3.65725080E+000   1.19908507E-006      50.48  <-- SCF
     26  -8.72122223E+002 -3.65729143E+000  -4.80924774E-006      52.33  <-- SCF
     27  -8.72122217E+002 -3.65729002E+000  -2.75178825E-006      54.34  <-- SCF
     28  -8.72122233E+002 -3.65749382E+000   7.92796488E-006      56.11  <-- SCF
     29  -8.72122225E+002 -3.65770251E+000  -3.76833878E-006      57.75  <-- SCF
     30  -8.72122215E+002 -3.65780073E+000  -5.34670462E-006      59.56  <-- SCF
     31  -8.72122234E+002 -3.65768088E+000   9.56708837E-006      61.33  <-- SCF
     32  -8.72122232E+002 -3.65768614E+000  -1.16048400E-006      63.05  <-- SCF
     33  -8.72122231E+002 -3.65768555E+000  -2.12583798E-007      65.19  <-- SCF
     34  -8.72122232E+002 -3.65766705E+000   3.45616474E-007      67.28  <-- SCF
------------------------------------------------------------------------ <-- SCF
 
Final energy, E             =  -872.0093939105     eV
Final free energy (E-TS)    =  -872.1222318271     eV
(energies not corrected for finite basis set)
 
NB est. 0K energy (E-0.5TS)      =  -872.0658128688     eV
 

Writing analysis data to O2.castep_bin

Writing model to O2.check
 
 *********************** Forces ***********************
 *                                                    *
 *            Cartesian components (eV/A)             *
 * -------------------------------------------------- *
 *                   x            y            z      *
 *                                                    *
 * O         1     -0.00000      0.00000    -36.55645 *
 * O         2      0.00000     -0.00000     36.55645 *
 *                                                    *
 ******************************************************

Writing analysis data to O2.castep_bin

Writing model to O2.check
 
 A BibTeX formatted list of references used in this run has been written to 
 O2.bib
 
Initialisation time =      3.55 s
Calculation time    =     67.59 s
Finalisation time   =      1.28 s
Total time          =     72.42 s
