#BIOSYM hessian 1
@Type: Hessian Update
@Units
 distance: 	A
 energy: 	Kcal/Mol
#header
@natom 19

#label
L1      L2      L3      L4      L5      L6      L7      L8      L9      L10     L11     L12     L13     L14     L15     L16     L17     L18     L19

#element
Li Li Li Li Li Li Li Li Li Li Li Li Li Li Li Li Li Li Li

#matrix
57
 6.691982470099E+01
 -5.994560212641E+01 1.198865479802E+02
 -6.058674391547E+00 9.305158294315E+00 1.514489722191E+01
 2.525562964690E+01 -5.188957420628E+01 -3.837262148684E+00 4.941831603063E+01
 3.305506605687E+01 -6.000530227292E+01 -7.914925352523E+00 2.523013594785E+01 6.152529613915E+01
 8.004727340618E+01 -1.349993670143E+02 -1.297625362901E+01 6.630490308640E+01 8.450344923890E+01 2.036860919977E+02
 1.520475512703E+01 -1.756109401546E+01 -4.816918641495E+00 9.622457697102E+00 1.381384384559E+01 3.095869250844E+01 3.262316720201E+01
 2.668465549520E+00 9.981334805741E-01 -1.146346942370E+00 3.194128615640E-01 9.538078816847E-01 2.186533744944E+00 1.199147525646E+01 1.250239395420E+01
 1.066788063683E+01 -1.725945205392E+01 -2.328529463526E+00 1.032950624485E+01 1.344449560228E+01 2.440598867087E+01 1.311968020049E+01 1.083623678505E+01 2.227503768591E+01
 5.422206099128E+00 -1.926858430851E+01 5.532276079429E+00 1.976317049640E+00 1.843958316208E+01 2.673820235379E+01 2.276126438126E+00 -3.016484181726E+00 1.266913487159E+00 4.261331275677E+01
 5.326916988271E+00 -4.858097707649E+00 -1.062717275504E+00 7.091629406991E+00 -1.631290282458E+00 4.803617911984E+00 -3.647228844014E-01 2.199014709093E+00 2.998232882242E+00 -4.915816574532E+00 2.339028257119E+01
 2.032370366212E+01 -2.917100788805E+01 -4.768681916497E+00 1.245228849436E+01 1.158353062210E+01 3.434852185384E+01 3.105633186135E+00 -2.223127096671E+00 1.787232154196E+00 1.039014364981E+01 -3.173854633024E+00 3.667438443554E+01
 -1.456689360699E+01 2.635221919807E+01 5.477957400969E+00 -1.143768795039E+01 -1.451012690011E+01 -3.351380026612E+01 -8.828650630228E+00 -3.282639325922E+00 -6.846441457094E+00 -3.142139246204E+00 -1.533341283041E+00 -4.953755161437E+00 2.868328084373E+01
 -8.203185428614E+00 1.490476856319E+01 6.959882926437E-01 -5.594500814825E+00 -8.322919527317E+00 -1.568202153500E+01 -3.261308078304E+00 3.051027248060E-01 -1.386511520338E+00 -2.432621127209E+00 -1.136064892123E+00 -3.407801585079E+00 9.549176087219E+00 1.462489577624E+01
 -1.062390274920E+01 1.883438027390E+01 3.804587861547E-01 -7.863786024909E+00 -8.923902113256E+00 -2.435514209104E+01 -2.697871561643E+00 4.126374112306E-01 -5.278953900968E+00 -4.123540851941E+00 1.641937671166E+00 -4.739217329015E+00 1.172956825228E+00 -2.290557769079E+00 2.880541743308E+01
 -3.380036999924E+00 1.181097231779E+00 2.910538149756E+00 2.276801693568E-01 -4.785473960131E+00 -5.644628579475E+00 -2.646021794458E+00 -1.773925969962E+00 -2.990449484394E+00 -5.657684326371E-01 -1.036769187325E+00 2.744894800222E+00 2.711281800381E+00 1.351499621187E+00 3.255817860889E-01 1.222435789794E+01
 8.166365076040E+00 -1.951714572054E+01 -2.715520809627E+00 7.466918468746E+00 1.064707412543E+01 2.277703022104E+01 4.136939764508E+00 -5.656452990774E-01 8.829106207659E-01 3.060955367998E+00 2.565496298781E+00 4.531088078354E+00 -3.065418820387E+00 -2.490052687806E+00 -4.815695317230E+00 -2.923319237544E+00 9.824782842319E+00
 1.511244991528E+01 -2.019324856340E+01 -2.775264722725E+00 8.990315895092E+00 1.462908841961E+01 3.338015082898E+01 5.360879801239E+00 1.232363117275E+00 2.432737454123E+00 5.410445258805E+00 -1.672610026114E+00 5.052235129829E+00 -2.445803330641E+00 -3.979159288409E+00 -4.252374063731E+00 -1.849748299317E+00 8.230594327864E+00 2.730593356777E+01
 -1.064400518025E+00 -2.186599676120E+00 1.577091955454E+00 1.997556841799E+00 -6.389629955799E-01 1.423909280087E+00 1.925649877280E+00 -2.726108626905E+00 2.338506128077E+00 -1.903998979382E-01 -1.422427912234E+00 1.315688378254E+00 -8.785281269667E-01 -2.425887223829E-01 -8.942868669357E-01 -1.202857530851E-01 1.284150488018E+00 -9.520425301180E-02 1.519062733993E+01
 1.897914975066E+00 -3.988848248277E+00 -1.261946081435E+00 3.486766992468E+00 2.087563943448E+00 5.577638080781E+00 1.176680320073E+00 2.328270880546E+00 2.059598790194E+00 6.741194803528E-01 1.245589421519E-01 2.160419874950E+00 -4.432097964147E-01 -2.240303933644E-02 4.978872569815E-01 -1.064919978245E+00 -5.991267390482E-02 1.759514953078E+00 -4.175530127280E+00 1.916558946466E+01
 3.610847957738E+00 2.859633447858E-01 -1.046134325014E+00 -6.142210120451E-01 -5.833618301456E-01 1.194012185748E+00 1.704808889795E-01 -2.368975647479E+00 -2.051601839376E-01 -1.544304568749E+00 1.855724533274E+00 1.189505744442E+00 1.412523423783E+00 -4.704926908517E-01 4.285642094192E-01 4.209684323212E-01 8.671301443479E-01 1.108936719234E+00 7.090020898674E-01 -7.334765329927E+00 1.827275815020E+01
 2.108263330191E+00 -2.508695056860E+00 -4.421630179593E-01 1.976214476738E+00 1.011216077990E+00 2.639255012500E+00 -6.407299866632E+00 2.665715705065E-01 -1.942867221585E+00 1.711032081678E+00 7.042102991429E-01 1.338551897233E+00 3.587407580299E+00 -8.114319025303E-01 5.974452853164E-01 5.984202644033E-01 -5.259752755699E-01 2.816151549044E-02 -9.265909643425E+00 2.536862263544E+00 2.658885819649E+00 1.768415204185E+01
 1.069822403732E+01 -1.292007429552E+01 -6.400327348118E-01 9.534633708708E+00 8.102732034726E+00 1.844457554994E+01 1.833801675935E+00 -1.290444545800E-01 4.341412596339E+00 8.200568110581E-02 -7.719530046868E-01 2.182247603355E+00 -5.077219826845E+00 -2.939331742396E+00 -1.366573954270E+00 6.410750334803E-01 -3.627788970487E+00 -2.186891120904E+00 -1.733791778546E-01 -3.152247239171E+00 -5.193628055670E+00 -6.915942076053E+00 2.764314720342E+01
 3.158126266085E+00 -1.010341563623E+01 3.652301710618E-01 1.935951669488E+00 1.039477020577E+00 7.943567532643E+00 1.021387124431E+00 -5.666359903975E-01 1.147685707782E+00 4.507815535710E+00 -1.623466071905E+00 5.656910407666E+00 -1.953473253646E+00 -8.492162891898E-01 -2.944737037770E+00 1.586351353023E+00 -1.748639619559E+00 -1.730848802130E+00 2.232311526286E+00 6.028413724399E-01 -1.636884414912E+00 -1.761802764738E+00 -3.828051441376E+00 1.690697341654E+01
 7.147235156182E+00 -7.093193176016E+00 -4.698131865168E+00 -5.862542123793E-01 7.847311577959E+00 1.279331388542E+01 1.087283814557E+00 2.367078054314E+00 3.337164222866E+00 -5.583330488066E+00 -8.132432761947E+00 -4.230623589105E+00 -1.936430338931E+01 -3.074760541722E+00 -6.592521289724E+00 -3.164840945798E+00 1.626507581100E+00 -3.328495366362E-01 8.551946547839E-02 -1.992289919456E+00 -6.140729870878E-01 -1.544439542858E+00 3.542322411682E+00 1.379803480561E+00 4.673174612949E+01
 4.443944611195E+01 -8.535266162137E+01 -9.232707713218E+00 3.896374264100E+01 3.481107516651E+01 9.832344817983E+01 2.156199150642E+01 5.801322706985E+00 1.690329313638E+01 1.112498420771E+01 2.044998060421E+00 1.501547113670E+01 -2.401927427857E+01 -1.067281550528E+01 -1.894389500280E+01 -6.502912010890E+00 1.904879206758E+01 1.703026287438E+01 5.230868198166E+00 5.011140787087E+00 3.642903629674E+00 -2.383301575716E+00 1.280172351854E+01 2.918318269830E+00 8.775166181983E+00 1.283149477061E+02
 -1.349509084631E+01 1.858776899556E+01 9.405605457683E+00 -6.935856715044E+00 -2.533564861647E+01 -3.414288182234E+01 -1.069860610432E+01 -6.198575319637E+00 -1.120539196484E+01 -4.662755982485E+00 -3.049519875831E+00 -2.031341636360E+00 7.511660159447E+00 2.232669632383E+00 8.279824308722E+00 8.367164093289E+00 -4.454594131803E+00 1.233427073293E-01 8.187695544021E-01 -3.088759915345E+00 -3.193108996381E-01 4.904884049429E+00 -4.362270622765E+00 2.198956778666E-01 -6.564237793625E+00 -2.092152537879E+01 5.167863339204E+01
 -1.239879028558E+01 1.554802319300E+01 1.175450951983E+00 -1.881167994037E+01 -1.431400129199E+01 -1.614682590001E+01 -7.422183541041E-01 1.413112845152E+00 -3.298756573660E+00 -6.203898178206E+00 2.132567668405E-01 -9.090162014512E+00 3.306317672222E+00 2.623408045826E+00 1.938532896258E+00 -2.636290228504E+00 -2.203770330689E+00 -3.451861086115E+00 -1.801219459756E+00 -3.893704742364E-01 6.677244883160E-01 -2.026266538516E+00 -2.125683361248E+00 -2.660612948049E+00 6.209666605351E-01 -1.251485082022E+01 7.807806921925E-01 2.074053555387E+01
 4.019202923893E+01 -6.109091038242E+01 -4.809507332527E+00 2.505389330563E+01 3.203718142315E+01 8.692959329242E+01 1.199336195207E+01 1.572144532626E-01 8.114477956377E+00 1.130828464186E+01 7.033802944779E-01 1.797625803812E+01 -1.550059552130E+01 -1.247890337467E+01 -1.276024256379E+01 2.233368626665E+00 1.001918312762E+01 1.286236196322E+01 1.373415442395E+00 5.601129608455E-01 3.630737247018E+00 2.784036153273E+00 8.209431028689E+00 6.380876864841E+00 5.760709664922E+00 5.035493404181E+01 -8.931690310927E+00 -7.030741395344E+00 6.568191775972E+01
 -2.273865353363E+01 3.788928213996E+01 4.286546188255E+00 -1.358060759436E+01 -1.884636618270E+01 -5.585135190384E+01 -9.617183919220E+00 -4.856236141445E-01 -4.247768859978E+00 -6.698226152310E+00 -1.737703306196E+00 -1.169145701687E+01 7.772261979223E+00 -5.492986619292E-02 -2.870756172650E+00 -1.785686163348E+00 -7.073863400471E+00 -9.761228474570E+00 -6.966703698069E-01 -1.971846397037E+00 -9.531248729035E-01 4.787616310003E-01 -2.415446314550E+00 -3.998461252321E+00 1.242560865363E+00 -2.645741489262E+01 2.926079978337E+00 2.122221129825E+00 -2.098985591525E+01 2.957307389542E+01
 -1.646243441525E+00 1.432121149650E+00 -1.386793644008E+00 5.719534667923E-01 -1.052028775465E+00 -1.046773850314E+00 -1.792919963386E+00 -1.284094902871E+00 -6.527107382804E-01 -4.700390282645E-01 1.140775844387E+00 1.846919326277E-01 1.664493867226E+00 7.749257068430E-01 -3.434707610061E-01 8.443987173768E-01 -1.276803573969E+00 -2.409107482658E+00 8.648759978561E-02 1.367490374145E+00 -2.275914819665E-01 5.440601548762E-01 -7.009280004255E-01 1.950500166941E+00 -1.371681583271E+00 -8.994712678592E+00 -3.622743697189E+00 -8.524846752415E-01 -4.408378859605E-01 1.296421912544E+00 7.179551542287E+00
 -1.908686813916E+00 -1.152225537534E+00 3.837033650671E-01 4.061568184202E-01 5.109117290080E-01 -2.032191751920E+00 -3.657182352124E+00 -1.795845447288E+00 -4.992328294472E-01 -7.536934345694E-01 1.046286207328E+00 -7.863581593599E-01 1.166704286770E+00 6.547884614466E-02 -8.499936348813E-02 9.228817463670E-01 -9.026063118538E-01 -3.370926890979E+00 6.929075719782E-01 1.092505000854E+00 2.135087417613E-02 -1.391971510881E+00 -1.805715255437E+00 3.645960979815E+00 -1.272431181754E+00 -1.028258577782E+01 -7.898685375567E+00 2.027113789510E-01 -1.245239817436E+00 -4.906759698481E-01 3.883139668485E+00 8.919120883514E+00
 -4.974424941524E+00 1.626506582150E+01 3.822039044412E-02 -6.003515701943E+00 -9.306769487405E+00 -1.731404665613E+01 2.069410830237E+00 2.745337212405E+00 -6.158153821029E+00 -6.299117710746E+00 -1.514698236574E+00 -4.829440091312E+00 4.776539034210E+00 -4.545646567490E-01 1.459640949831E-01 -2.323970524677E-01 -2.579909296388E+00 -2.388880308641E+00 -5.246456312055E-01 -1.737437249242E-01 -3.021999345270E+00 -1.467419847570E+00 -1.970447229791E+00 2.523881803835E-01 -3.991416046879E+00 -1.621046474016E+01 -1.103780010184E+01 4.332992216447E+00 -9.226487552265E+00 6.454541425173E+00 3.531826471659E+00 6.877886510772E+00 2.273447403142E+01
 1.278275841061E+01 -2.890972556971E+01 -4.838689486386E+00 1.840317203498E+01 1.541123409414E+01 4.117942381150E+01 5.005577174443E+00 -2.104882712385E+00 5.720143652469E+00 4.459510213300E+00 -1.774090031824E-01 7.174528378655E+00 -8.763664061278E+00 -2.733882047747E+00 -2.984785155040E+00 -1.422545019561E+00 5.089999817989E+00 1.265993913480E+01 5.463496087012E-01 1.095927500454E+00 1.240795574343E+00 2.336057413361E+00 4.759547773133E+00 -2.715510356613E+00 -7.754491400054E+00 2.031136792512E+01 3.279061092776E+00 -6.142888584425E+00 1.873765164914E+01 -1.341657461500E+01 3.507297641073E+00 -1.004986502386E+00 -6.909788121482E+00 3.794865796087E+01
 -1.234408951861E+01 1.947081346449E+01 6.745829483639E+00 -1.049322046200E+01 -1.761303514350E+01 -3.127576913283E+01 -8.510868096745E+00 -3.742621277111E+00 -1.001333971056E+01 -8.940766631323E-01 -3.414619857633E+00 4.772582274709E+00 8.638177935590E+00 3.888939863780E+00 2.833681624918E+00 4.780654859410E+00 -5.203244922618E+00 -4.466812777321E+00 -3.536281342456E+00 -2.228728816209E+00 9.835248626005E-01 4.207187387701E-01 -7.791224300966E+00 3.465601923439E+00 -1.074254191399E+01 -2.889779313375E+01 1.581977411769E+01 1.114270102450E+00 -1.323345921500E+01 8.750388027773E+00 3.982203110629E+00 1.702751378838E+00 2.192855030726E+00 -4.471555035197E+00 2.983810109617E+01
 1.940721018549E+00 -2.535969523241E+00 -6.462010289188E+00 -1.344009517796E-01 6.540286744679E+00 5.695659998561E+00 2.735028889865E+00 1.999541747144E+00 3.834070100673E+00 -5.226188414547E+00 8.267282519619E+00 -1.663060860019E+01 -2.822131239347E+00 -2.466024980556E-01 2.954377209642E-01 -2.151086102589E+00 1.397310533740E+00 -2.727208458240E-01 7.621651553856E-01 3.848169263552E-01 -2.530681417433E+00 -1.499118138287E+00 3.495001495391E+00 -3.669838165946E+00 3.957223113626E+00 1.134201847584E+01 -9.808180353754E+00 4.017011841306E+00 1.896560327283E+00 -1.425756173868E+00 -8.535684937274E-01 -5.454660614860E-01 -6.285347592368E-01 -3.140138732854E+00 -2.017075435910E+01 2.959428474003E+01
 2.954781534245E+00 -7.285735331063E+00 6.402769893504E-01 2.606582457438E+00 4.527601182688E+00 9.846961270219E+00 -1.821290421623E+00 -1.671837559545E+00 -9.069122164494E-01 3.682739048801E+00 -3.601194253721E-01 2.274453523378E+00 -1.706024925238E+00 -3.153412149783E-01 -4.830581236508E+00 -1.514380196436E+00 2.336591414808E+00 2.251876960198E+00 5.962003824689E-01 -5.465881595873E-03 5.627808783335E-01 6.512973373983E-01 7.080126345888E-03 6.458102249774E-02 3.413805130802E+00 8.845571707510E+00 -1.246129776234E+00 -7.891651857274E-01 5.330500678378E+00 -1.955379167893E+00 -8.160382103763E-01 -3.310232094201E-01 -3.082272490441E+00 2.578527561317E+00 -2.102681133056E+00 1.024051106470E-01 4.447609940468E+00
 -3.861670702477E+00 1.270844949378E+01 3.437932160821E+00 -3.685898095686E+00 -8.273050199172E+00 -1.448050405233E+01 -6.184891322348E+00 -2.256191352808E+00 -2.567694595801E+00 -1.134155875631E+00 1.249391746908E-01 4.649903289869E-01 1.623090606951E+00 1.410669035869E+00 3.243378131797E-01 2.572192728809E+00 -1.311258876464E+00 -1.635997835325E+00 -2.786750889044E-01 -1.533991245655E+00 -2.717547771899E+00 -1.871467068774E+00 -1.473881087544E+00 6.756151931592E-01 -1.388826706001E+00 -8.864006134080E+00 5.782824650874E+00 -1.343658673018E+00 -2.970620918375E+00 3.576193613886E+00 -1.633838033934E+00 9.218422314011E-01 -7.628799225730E-01 -6.156206063166E+00 4.840632999333E+00 -3.924929010428E-01 -4.665565311056E-01 1.196517425171E+01
 -3.071799211334E+01 4.796830638212E+01 6.598489702143E+00 -2.193271611151E+01 -2.769154567905E+01 -6.333370858614E+01 -1.515306474606E+01 -1.665041862169E+00 -1.078522979301E+01 -7.536211610652E+00 -4.208367491595E+00 -1.067038690644E+01 1.239361045393E+01 7.234324974765E+00 9.324056502687E+00 4.315006726059E+00 -8.114887534530E+00 -1.054353923594E+01 1.197852271393E+00 -2.521447122132E+00 -9.683920781537E+00 -1.025920707234E+00 -4.498229253778E+00 -4.860228219654E+00 -7.878676656096E+00 -4.207500294344E+01 1.761342029039E+01 5.242448614991E+00 -2.906425254102E+01 1.627239345962E+01 6.775661946669E-01 -4.060036798349E-01 7.313635273402E+00 -1.330855826916E+01 1.388186631766E+01 -2.416087048567E+00 -4.036119661575E+00 8.865404294386E+00 3.395419468434E+01
 1.373310066150E+01 -3.655953834421E+01 -4.514937063916E+00 1.664289822477E+01 2.181737552899E+01 4.083796995823E+01 -1.000624477260E+01 -6.872559727338E+00 -2.492490626071E-01 2.435842072274E-01 5.860475312925E+00 -1.032868546797E+00 -5.788644605470E+00 -4.793548845468E+00 -1.550262052874E-01 -1.887686932211E+00 6.581476265531E+00 3.497807982927E+00 -3.461248878418E+00 7.792354446808E+00 -6.616443557850E+00 -7.010753888859E-01 8.107186380273E+00 4.240226859727E+00 1.854679231324E+00 3.083563762260E+01 -6.954781815812E+00 -7.039291051092E-01 1.427400592688E+01 -1.527787383394E+01 -3.391165165545E+00 3.022168871974E+00 -5.111214144858E+00 1.382442997231E+01 -1.789677411034E+01 1.183972426826E+01 2.714674569391E+00 -2.581757850404E+00 -1.207948743817E+01 6.700106749535E+01
 -1.653496721341E+02 2.914653726932E+02 3.080714253174E+01 -1.353684200669E+02 -1.635218984000E+02 -3.693346895432E+02 -7.075712217801E+01 -1.098456045812E+01 -5.877386004797E+01 -5.722876502250E+01 -8.570630896563E+00 -6.641312063529E+01 7.248795946584E+01 4.021317170017E+01 4.948781894782E+01 1.446711349719E+01 -4.973510507903E+01 -6.009672142197E+01 5.830704958961E+00 -2.497409636919E+01 5.951797262164E+00 -6.256477048882E+00 -4.320934539905E+01 -1.631809031193E+01 -2.265480903598E+01 -2.427533736158E+02 7.771881231431E+01 4.171084565245E+01 -1.687486078997E+02 9.953016927099E+01 4.775417104007E+00 -3.735415610964E-01 3.658866533777E+01 -8.484640211381E+01 7.172604510029E+01 -1.821069569800E+01 -1.894446199159E+01 2.960757778088E+01 1.370194853488E+02 -9.313233169879E+01 8.238692259224E+02
 2.383340410828E+01 -5.626154173987E+01 -1.087044649199E+00 2.568358815231E+01 3.204901707569E+01 6.980954389459E+01 -1.849873847857E+00 -1.918203079288E+00 2.958343531254E+00 1.310230423390E+01 7.981190112634E-01 9.476236890312E+00 -1.115602484407E+01 -6.789108516621E+00 -1.263547920578E+01 -3.127871269522E+00 8.273127357170E+00 9.823861587635E+00 -8.591079608488E+00 8.438586046991E+00 -5.607168995464E+00 1.011051749614E+01 1.312132421632E+01 -1.051723031175E+00 1.332082187877E+01 4.118445010241E+01 -2.111095181564E+01 -5.881492887709E+00 2.700634452608E+01 -1.503651099201E+01 1.845171395686E+00 2.283243759966E+00 -3.952327875676E+00 1.803025439532E+01 -1.516949056092E+01 3.223960075495E+00 9.678709675930E+00 -9.437235374342E+00 -2.710775086521E+01 2.147677229890E+01 -1.497337735008E+02 7.361219771660E+01
 5.042153549846E+01 -8.761782736714E+01 -5.972242571417E+00 4.000847905295E+01 5.011810525904E+01 1.121057322266E+02 1.724787964279E+01 5.868467193030E-02 1.345819118199E+01 2.028289958417E+01 8.154499804933E+00 2.135074302470E+01 -2.298060063327E+01 -1.128319399983E+01 -1.665476987949E+01 -4.078514026751E+00 1.563549321859E+01 1.993235297575E+01 -9.338749584192E-01 -9.540908619720E-01 1.569355684225E+00 5.008820653552E+00 1.297317449980E+01 5.057726311253E+00 8.466489267201E+00 6.396769954440E+01 -1.479371549661E+01 -1.371875670029E+01 5.219427805468E+01 -2.965040826200E+01 -8.695786806151E-01 -7.644236242101E-01 -1.316259670488E+01 2.680576148420E+01 -1.706048998929E+01 -2.770681394475E-01 7.035156413625E+00 -8.133108243361E+00 -4.021592162175E+01 1.916843020450E+01 -2.352783468206E+02 4.350017533172E+01 8.435116750606E+01
 1.203351493541E+02 -2.135670415654E+02 -2.067488805447E+01 9.843057103958E+01 1.201738548291E+02 2.664345984986E+02 4.432950523381E+01 2.040944139910E+00 3.555630838416E+01 4.370501346459E+01 -2.839856095836E+00 4.941831077775E+01 -5.176417632145E+01 -2.741506137274E+01 -3.617198916654E+01 -7.972572167678E+00 3.413201919366E+01 4.401916317909E+01 -2.142709995552E+00 1.345490101908E+00 -2.109065077720E+00 4.729255005840E+00 3.486437107209E+01 1.524480391579E+01 1.937420303876E+01 1.645055843166E+02 -4.500800399934E+01 -2.990157302482E+01 1.215017835946E+02 -7.360533125721E+01 -5.856545878249E+00 -1.621777447048E+00 -2.782967578345E+01 6.385834744077E+01 -4.922074330167E+01 1.239717644039E+01 1.583068730991E+01 -1.906506798207E+01 -9.399576882103E+01 7.050657609708E+01 -5.726332451914E+02 1.090969726471E+02 1.676369776691E+02 4.328286355525E+02
 -6.786691088876E+01 1.224109034368E+02 1.361467400941E+01 -5.367483638622E+01 -7.032394871158E+01 -1.542592678174E+02 -2.461763220820E+01 -1.197267275337E+00 -2.031342564298E+01 -2.416744042105E+01 -2.825193017035E+00 -2.354209702365E+01 2.751689245295E+01 1.599408330217E+01 2.162792544514E+01 8.218589821668E+00 -2.046776097280E+01 -2.397344234924E+01 -3.257300348737E+00 -1.987538437044E+00 1.750276294316E-01 9.793835529713E-01 -2.040629629545E+01 -9.079317244962E+00 -1.235486733013E+01 -1.004163263966E+02 3.141389040822E+01 1.548734168029E+01 -6.997916192913E+01 4.288823459427E+01 4.490374883199E+00 3.228078761031E-01 1.651957134698E+01 -3.756635434062E+01 3.264055859084E+01 -8.821213904456E+00 -1.233645517136E+01 1.740825769236E+01 5.916035292646E+01 -4.562674743735E+01 3.280937134485E+02 -6.947318465255E+01 -9.301348539870E+01 -2.436043565278E+02 1.597446294116E+02
 1.839244094677E+00 -6.079449117146E+00 -3.867263168233E+00 -2.412182067689E+00 6.294559786949E+00 -6.426028546066E-01 4.602587772782E+00 3.468960170676E+00 3.865667275412E+00 -6.490324163243E-01 9.272244042792E-01 -2.400170771822E+00 -5.931168009837E+00 -6.103729743333E+00 1.178766444128E-01 -3.979147413063E+00 1.260676791664E+00 -1.221585721025E+00 6.430684209460E-02 -4.539181690658E-01 -1.077443388454E+00 -2.286830205890E+00 2.915874536735E+00 9.111992571203E-01 1.335296941676E+00 1.730072098537E+01 -1.230531783099E+01 -1.818212190453E-03 1.574397176504E+00 1.022215344928E+00 -3.612850147007E+00 -8.825479868486E-01 -3.710754926996E-01 -6.146466280933E+00 -7.542569993994E+00 5.522371398112E+00 1.823135249897E+00 -2.442101738667E+00 -3.391230949184E+00 4.282892373237E+00 -2.229303649862E+01 -8.710732023660E-01 4.568707864655E+00 1.392966152410E+01 -1.060857151931E+01 2.045869252881E+01
 -2.890881308433E+01 5.104992894551E+01 5.231643469081E+00 -2.586665292728E+01 -3.128199389547E+01 -6.717793359899E+01 -1.110962728788E+01 -1.464851851839E+00 -8.224128366484E+00 -9.730314362777E+00 -2.280830833790E+00 -1.138509905306E+01 9.588779032207E+00 -7.561790155195E-02 1.089147635832E+01 2.641424607501E+00 -8.647330575913E+00 -1.102475578263E+01 -1.304477411323E+00 -3.104013301106E+00 4.342879069580E-01 7.908681157310E-01 -7.074059208644E+00 -3.971503108319E+00 -1.432129223961E-01 -5.459198055976E+01 2.099573923161E+01 7.788638971715E+00 -2.895856596737E+01 1.711624884519E+01 -2.868710355237E-01 3.679796507148E+00 8.559864195897E+00 -1.518532165210E+01 1.089267676276E+01 -2.670866433891E+00 -4.789934564515E+00 7.081084117096E+00 2.389598364962E+01 -1.865329831045E+01 1.396177805159E+02 -2.659042732368E+01 -4.183357458178E+01 -1.008107094715E+02 5.875148245999E+01 -6.838276313338E+00 4.512316125615E+01
 -9.806796506193E+00 1.703160230382E+01 1.154096383994E+00 -1.282500408985E+01 -9.718056906618E+00 -3.651885451685E+01 -3.683997895905E+00 -5.436175137857E-01 -3.145496352200E+00 -2.975830233165E+00 -1.542794533506E+00 -3.402787488804E+00 7.299610045524E+00 5.651835539744E+00 -1.365317462263E+00 1.971178672965E-01 -2.998816304070E+00 -4.090163179356E+00 2.083701969392E-01 -1.283191531031E+00 3.307265640075E-01 -2.698485364529E+00 -2.248737599066E+00 1.837986957043E+00 -3.982304035792E+00 -5.385718153516E+00 -3.494347854471E+00 2.761404644932E+00 -1.356763736888E+01 1.116378251237E+01 1.188848211532E+00 -2.045749843418E-01 1.080402631715E+00 -5.080792838159E+00 5.249877506581E+00 -2.244055666691E+00 5.030917363246E-01 9.797315636006E-01 5.733318724292E+00 -4.832439629368E+00 4.792591567013E+01 -6.942782740964E+00 -1.287684651391E+01 -3.165663776583E+01 1.810254660344E+01 7.419504621992E+00 -5.061397486365E+00 2.441765381969E+01
 -1.112069570814E+02 1.641286610631E+02 1.543260730031E+01 -7.656526498446E+01 -9.932675099177E+01 -2.205544299576E+02 -3.547719921600E+01 -1.736622831201E+00 -3.298515821016E+01 -3.753562755667E+01 -4.277640194175E+00 -3.713024567345E+01 4.087378665021E+01 2.317832333663E+01 3.185455995263E+01 1.295961729563E+01 -2.996364094539E+01 -3.791802534662E+01 -4.474203072804E+00 -5.093286386393E+00 -1.277491272612E+00 -2.478840470514E+00 -2.799976531482E+01 -8.262248596949E+00 -2.879461707832E+01 -1.355618134986E+02 4.291744093622E+01 2.654763164512E+01 -1.009745351250E+02 5.962377380496E+01 -1.102068712756E+00 1.956027718480E+00 2.368446361847E+01 -5.944378769888E+01 4.944516246776E+01 -9.204182997528E+00 -1.816923726640E+01 2.185552646468E+01 8.083867778180E+01 -7.040484910365E+01 4.661838227329E+02 -8.936985442992E+01 -1.410464866570E+02 -3.399866093012E+02 2.004853918526E+02 -1.472450969721E+01 8.759685458706E+01 2.104659310246E+01 3.400858801596E+02
 5.525384209005E+01 -1.165922597204E+02 -1.555481430157E+01 5.051113352828E+01 6.404820830346E+01 1.388432646256E+02 2.387383068921E+01 1.772758389932E+00 2.329950736082E+01 2.072458961075E+01 -2.337489376197E+00 2.019003159342E+01 -2.851726999655E+01 -1.767220316799E+01 -1.768444089753E+01 -7.367575531583E+00 1.993018558762E+01 2.186242013795E+01 3.410157703342E+00 4.790734431277E+00 1.805131089004E+00 5.040038516476E+00 1.843822816294E+01 3.424498921513E+00 1.905936092357E+01 8.663939498370E+01 -3.349455522421E+01 -1.295602485835E+01 5.980960783523E+01 -3.620096294300E+01 7.303224592964E-01 -5.539498115547E-01 -1.283980121544E+01 3.633976080016E+01 -3.713692873178E+01 6.113759042122E+00 5.931684808440E+00 -2.703901099186E+01 -5.440118298301E+01 3.813796734037E+01 -3.048943890686E+02 6.381810588744E+01 8.896079733085E+01 2.183557606046E+02 -1.301432188349E+02 1.338855853632E+01 -5.242430747604E+01 -1.671305290785E+01 -1.904132850202E+02 1.599439234652E+02
 8.737863689971E+01 -1.539013100053E+02 -2.780470078319E+01 6.744840208627E+01 9.280674889377E+01 1.969407496654E+02 3.755725629876E+01 4.178446478691E+00 3.239668631015E+01 2.925022257481E+01 3.881161351457E+00 2.751500514408E+01 -4.073935662215E+01 -2.211569927358E+01 -2.648262190276E+01 -1.403004969423E+01 2.711542987505E+01 3.060209501378E+01 2.436371756911E+00 4.607295520057E+00 3.341838452630E-01 -2.894752350095E+00 2.504088435219E+01 1.087507105794E+01 2.672491067669E+01 1.312445778772E+02 -5.026732924347E+01 -2.099678631674E+01 8.845316396374E+01 -5.250991789003E+01 -5.102020187614E+00 -1.159984103474E+00 -2.261679109943E+01 4.407629262928E+01 -4.478727950605E+01 1.245007969160E+01 1.275145830402E+01 -2.206381171594E+01 -7.855293366161E+01 5.859863548742E+01 -4.290353827375E+02 8.168851456933E+01 1.199336820101E+02 3.090582248651E+02 -2.001591495998E+02 2.027044345134E+01 -7.552829335740E+01 -2.185445551716E+01 -2.645857480218E+02 1.762375847406E+02 2.767685332457E+02
 3.518787215083E+00 -2.064308381068E-01 -1.476957836134E+00 -2.039969988974E+00 1.448660567231E+00 3.195863791259E-01 1.172089755883E+00 2.559402681714E+00 4.167958121393E+00 -2.052519220469E+00 -1.303271468827E-01 -1.450958226809E+00 -2.413888796439E+00 -1.287237361779E+00 1.179566167424E+00 -3.693401964357E+00 3.684330281547E-01 -1.003205510264E+00 1.564654392411E+00 -7.110526752661E-01 9.552722032957E-01 -6.050295441555E+00 8.993463652387E+00 -5.150808574841E+00 3.662876683546E+00 6.346383087619E+00 -7.869602499707E+00 3.413760291369E+00 -5.351555944049E+00 -1.477511726389E+00 1.926944706305E-01 5.600160616152E-01 1.253754286758E+00 -3.212767980039E+00 -3.722566851182E+00 2.268881575908E+00 5.208529272180E-01 -6.414946426938E-01 -9.148777050633E-01 -7.483078866820E-01 -3.824606342259E+00 1.035142449195E+00 -2.400994137135E+00 3.402791975564E+00 -5.832639958350E+00 4.947456603645E+00 -8.256125076129E-01 1.269380071499E+00 -7.062843446743E+00 2.728578268328E+00 8.393865108844E+00 1.710465519436E+01
 -4.959403824466E+00 3.602428209481E+00 -2.316844057402E-01 -3.109338520970E+00 -1.928418753771E+00 -8.335337060373E+00 1.890231011288E+00 -5.534663886696E+00 -5.889905942979E+00 1.070597394493E+00 -1.411566194950E-01 -2.631019431033E+00 1.784986056686E+00 -3.799763800294E+00 6.967182732020E+00 -1.812737635851E+00 -3.960804673145E-01 -2.614276080394E+00 4.574751352464E-01 2.225586516914E+00 -8.326927056219E-01 5.720408325254E+00 -1.122721598651E+01 4.775717283538E+00 -3.489302913802E+00 -6.730560896075E+00 8.118401038114E-02 6.905575710706E-01 -2.038232486076E+01 -7.198142004211E-01 9.945487342879E-01 3.479572486230E-01 2.697684270216E+00 -1.718924762797E+00 -3.184422758045E-01 1.523820713890E+00 -1.845768128018E+00 -1.527411521609E+00 -6.744432812845E-01 4.862319698282E+00 1.096138996647E+01 -5.479583442040E-01 -4.031386037969E+00 -6.882239229646E+00 4.574126272311E+00 1.328941398994E+00 9.266681524403E-01 4.115883470471E+00 5.254035194998E+00 -8.929309504952E-01 -4.745718464593E+00 -3.605638865739E+00 4.126251446173E+01
 1.942693940879E+00 -2.066400218944E+00 -1.501055045245E+00 1.137167866003E+00 -1.234410769840E+00 1.824431285282E+00 1.244140221978E+00 -7.170572877383E+00 -5.588478871912E+00 -9.841062348366E-01 2.037498169196E+00 1.693306205204E-01 -2.517002443551E+00 6.426430787786E+00 -1.175338167601E+01 -1.688830966116E+00 2.053409906903E+00 -1.543602086506E+01 1.584301975045E+00 -9.522207275261E-01 4.390743663752E-01 -5.673165415570E+00 5.817030144901E+00 -4.181507717346E+00 -1.631137256454E+00 6.533871922365E+00 -2.224124186720E+00 1.364369919593E-01 -1.983108583740E+00 -2.031047727994E+00 8.687483687515E-01 1.265910354960E+00 -1.136735736334E+00 -3.579495072217E-01 -3.159122347575E-01 2.680645474012E+00 2.725339729781E+00 1.514775765069E+00 -3.946420298731E-02 -1.352278756794E+00 -5.318316388101E+00 -1.594406020983E-01 3.230123962372E+00 2.379971318305E+00 -2.105842208144E+00 1.541801091568E+00 -1.025767940980E-01 -1.144336015928E+00 -1.683592584880E+00 -1.411265378536E+00 1.840067556960E+00 4.834103067109E+00 -2.454261807337E+00 4.054427697909E+01