#BIOSYM hessian 1
@Type: Hessian Update
@Units
 distance: 	A
 energy: 	Kcal/Mol
#header
@natom 13

#label
L1      L2      L3      L4      L5      L6      L7      L8      L9      L10     L11     L12     L13

#element
Li Li Li Li Li Li Li Li Li Li Li Li Li

#matrix
39
 1.083517157817E+01
 -3.057135387596E-01 2.324043223853E+01
 3.301608102110E+00 -1.094845496293E+01 2.913095073410E+01
 -1.320031759820E+00 2.543434770536E+00 1.058768442041E+00 2.832444238732E+01
 -1.516942083647E+00 -4.269453675735E+00 -2.676574397397E+00 -1.799409391324E-02 1.622746434641E+01
 2.582650548382E-01 2.547284175839E+00 2.555881003181E-01 1.940326423455E+01 -5.749571374520E-01 3.482467915720E+01
 -3.177561060882E+00 -4.367860828564E-01 -2.856124079521E+00 -1.939054561160E+01 1.443017195490E+00 -5.310350559642E+00 3.735078778335E+01
 4.438815354197E+00 -1.524964026776E+01 1.916965672216E+00 -3.882002287554E+00 -1.779700989645E+00 -1.266327569734E-01 6.972112133260E-01 3.596767554427E+01
 -1.108949666486E+00 4.792287298860E+00 -2.004860645881E+00 -7.428908536919E+00 -1.928305943387E+00 -7.583139917782E-01 8.583055358000E+00 -4.682734973429E+00 3.174145794419E+01
 7.881344673236E-01 1.415737605912E+00 9.890473413576E-01 2.941028607611E+00 -1.721682190761E+00 2.157121947931E+00 -8.768185987642E-01 -9.130345077799E-01 -9.964779663888E-02 1.766405484840E+01
 -9.944515032497E-01 -9.720743031618E-01 -3.266838066876E+00 -5.188155201639E+00 3.051827128772E+00 -1.860402328557E+00 4.671783607181E+00 2.740658792825E+00 6.855451926276E-01 -9.569981049572E+00 5.334268130531E+01
 -8.397973873211E-01 1.422725614593E+00 1.487964181037E+00 4.203476598746E-01 6.796614067616E-01 8.298325108603E-01 7.345253889773E-01 -1.241672219582E+00 -8.546312760103E-01 -1.660101431812E+00 -1.162917237174E+00 2.353703267148E+01
 -1.900464837582E+00 2.719588795063E+00 -1.919680674058E+00 5.287665578759E+00 -1.549721707716E+00 1.023069928956E-01 -9.249251557554E-01 7.687740883201E-01 -3.388160579906E-01 3.537579574616E-01 -8.233981081869E+00 5.638548019942E+00 1.138371500693E+02
 -1.062005262653E+00 -1.541338694744E+00 -1.615972817064E-01 2.822464645911E-01 1.346673128089E+00 -1.235465395164E+00 3.100573953954E-01 9.359399870411E-01 -8.469315208985E-01 -4.305463679116E+00 -3.306788871937E+00 4.081389869127E-01 1.548463383825E+01 1.543620212095E+01
 4.388153929478E-01 7.223105672868E-01 6.486208277159E-01 -7.556740055523E-01 -4.705407677474E-02 3.336655426532E+00 -9.703622835559E-01 -1.809136340914E+00 -1.131637919278E+00 2.767411991322E-01 -1.720288884535E-01 -5.281375595859E-01 -1.727771101904E+01 -1.101665717406E-01 2.647485663834E+01
 3.696382110197E-01 -2.847525442988E+00 -1.380221295584E-01 -2.323022162851E+00 1.633751206254E+00 -2.392025016631E+00 3.119741484782E+00 3.273578028076E+00 6.162199602195E-01 -1.521445904554E+00 2.607728400376E+00 2.540783545659E-01 -5.693769954973E+00 3.028044699418E+00 -4.899496508196E-01 1.267036079956E+01
 3.157922324020E-01 5.737158333163E+00 -3.244819077253E+00 5.858163514152E+00 -4.725687355267E-01 -2.056239891489E+00 -8.571189583377E+00 -6.267611902663E+00 -1.240171558025E+00 2.607868590946E+00 -2.542269004583E+00 -6.420598939356E-01 -7.277036908395E+00 -3.353195765440E+00 6.141934941168E+00 -8.162481385162E+00 7.579344130201E+01
 -7.351323167364E-01 -4.874413344202E+00 1.343048473821E+00 -4.525379440570E+00 2.549473179331E+00 1.128889246869E+00 5.619127681022E+00 5.945061758637E+00 7.495847946313E-01 -2.631285944051E+00 9.233101488775E-01 -1.301955566715E+00 3.171330094556E+00 1.959516018616E+00 -6.219898549585E+00 1.253578646376E+00 -3.591320236494E+01 4.722685187098E+01
 -5.560395607058E-01 5.998158193985E-01 -1.722620389308E+00 -7.152034775339E+00 3.975478356837E-03 -5.706250380194E+00 3.885298763334E+00 1.028681912275E+00 -2.721418097214E+00 -8.695147380125E+00 7.491662661349E+00 -3.222230975216E+00 -1.262682114833E+01 8.188276040056E-01 -4.842489452403E-01 3.908772674470E+00 -7.963938792242E+00 6.917298486202E+00 4.153604567202E+01
 4.565939468602E-01 1.837975175293E+00 -2.291334332700E-01 -4.524789660237E-02 -1.547469092719E+00 4.194776492921E-01 -5.124738764420E-01 5.943368027124E-01 -2.384503130088E+00 4.073289866249E+00 -2.515303487872E+00 1.298810866237E+00 -4.830246364825E-01 -1.174399111953E+00 -3.603405554625E-02 -2.245707362020E+00 -2.454870251128E+00 -4.687340151496E-01 3.796990651509E+00 1.022042061619E+01
 -2.613323169983E-01 9.513554064282E-02 -4.668026138721E-01 -4.930235994950E+00 -8.247057994101E-01 -4.626881071435E+00 1.493931830042E+00 1.412060301862E+00 -6.826547668433E+00 -2.945974516923E+00 3.725962547542E+00 -3.397912081408E+00 -5.537358301038E+00 7.135359248408E-01 -6.272653047437E-01 2.408124329863E+00 -6.670844697715E-01 2.344737934856E+00 1.348776274517E+01 4.116795409330E+00 2.768347617056E+01
 -5.363687853433E+00 2.102415210020E+00 -7.797040365596E+00 -4.539453520050E+00 -1.947625536688E+00 -2.803173895448E+00 3.449582238920E-01 -7.231790677523E-01 -2.476936214652E+00 -4.584593282026E+00 3.017728748844E+00 2.332130069256E+00 -2.269189104477E+00 5.142391434065E-01 -1.308882768315E+00 1.342891255190E+00 -4.757540366206E+00 4.265302723623E+00 3.011926466354E+00 3.719548178726E-02 1.475266303604E+00 3.058231849017E+01
 3.125035973075E+00 3.044630653152E-01 2.887214019320E+00 -4.558417104224E-01 5.573685059441E-01 -6.998136993203E-01 -4.250240072571E+00 -8.787958197641E+00 -7.776384049586E+00 3.069243905762E+00 -3.502196099679E+00 -3.525226623824E+00 2.369423337288E-01 7.915397134063E-01 -1.192085770471E+00 -3.189514219351E+00 3.397862580891E+00 -2.486480271597E+00 -8.154658109117E-01 -1.236317954239E+00 -1.304610176160E+00 2.632060849825E+00 2.594108241799E+01
 -5.903104501706E+00 3.425673722538E+00 -1.112618724094E+01 8.584446953220E+00 1.855261392993E+00 6.320560071557E+00 -8.768331558900E+00 -1.022057600526E+01 -6.321352980373E+00 4.825520605702E+00 -2.592216024874E+00 -2.997441199211E+00 4.031527766848E+00 -1.044319670941E+00 1.917020513002E+00 -2.481844572483E+00 8.462498654493E+00 -8.626462583918E+00 -6.679150674842E+00 4.311414846586E-01 -5.421728648137E+00 7.274569008989E-01 3.078469348531E+00 3.506261161800E+01
 -3.786640620987E-01 -1.708949869679E+00 7.571561091827E+00 7.195654917625E-01 -4.046350474307E+00 -1.187244345563E+00 -9.165717058051E+00 3.295154556903E+00 3.466346865262E+00 -5.553917637489E-01 -5.842582241470E+00 -3.202916117593E+00 2.111988118535E+00 -2.592647718512E+00 2.973049990815E+00 -3.397187762102E+00 6.677184818112E+00 -3.849373945850E+00 -3.653746777249E+00 6.401584553134E-02 -4.482750525731E+00 -1.710796817687E+01 -1.731719724113E+00 1.641829861324E+00 3.704095007483E+01
 -3.122132011170E+00 -5.130667516415E+00 5.770464344174E+00 -4.712948402993E+00 -5.505709658239E+00 -9.595984956530E+00 6.521110857878E+00 -1.796079170984E+00 -4.817686135774E-01 -2.080099610136E+00 -7.254671083121E-02 -2.324877582229E+00 -1.415163193748E-01 -9.924276129045E-01 1.485092754261E+00 1.073266533227E+00 -3.541911106932E+00 1.917630618612E+00 3.780942108396E+00 1.201030247886E-01 3.531985966560E+00 -1.505008454033E+00 -3.307336294747E+00 -3.072605048867E+00 -8.940720597625E-01 2.899666255311E+01
 4.533063365062E+00 2.985746056115E+00 -1.163065101013E+01 -6.011976590261E+00 -6.837684572674E+00 -1.616694061850E+01 2.577148959880E+00 -2.676900107806E+00 -6.118659183015E-01 -1.047729437483E+00 -4.281357679399E+00 -8.322010443933E+00 5.741355145727E-01 1.878832613410E+00 -6.601219314257E+00 2.251508126772E+00 9.604308053826E-01 -2.595635890758E+00 7.654595883433E-01 6.502977814929E-02 6.412889538427E-01 6.018765775927E-01 1.771820740944E+00 -3.113175694445E+00 3.546919788020E+00 4.704801237982E-01 4.836616252493E+01
 -1.616625319469E+00 -1.536322542016E+00 -2.846131192596E-01 -3.871081585649E+00 5.165858938859E+00 -8.248767258708E+00 -3.975061872626E+00 -5.503349130233E+00 5.334565244309E+00 -3.469163995530E-01 2.756657515000E+00 2.670325654943E+00 2.539147473380E+00 2.733677553824E+00 3.202245280954E+00 -1.293155361326E+00 -1.022341923459E+00 3.960587320701E-01 -7.827037504000E-01 -1.729704588157E+00 -2.768928422678E+00 8.830801649950E-01 8.933385414357E-02 4.309227320476E-01 -7.593996603734E-01 1.936136689009E+00 -1.377587556325E+00 2.206251071027E+01
 -2.041555456997E+00 -7.155025850348E-01 1.516682512671E-01 4.414712720271E+00 -4.662565952586E+00 6.284946176648E+00 -3.142129921486E+00 -5.116894215178E+00 6.725332026374E+00 -4.956725786098E-01 -2.418709822002E+00 6.117621837303E-01 -8.421863264378E-01 -3.628465717134E+00 -6.136537697047E-01 -2.482166835162E+00 -2.549088330046E+00 3.172693550472E+00 -1.060026010694E+00 -2.677432119161E-01 -2.775555331984E+00 1.213303984074E-01 -1.288596759100E+00 2.867758130064E-01 3.728466282863E+00 -1.061021531435E+01 3.673326020745E+00 3.483091308372E+00 3.373305605862E+01
 1.509208200428E+00 2.074595047791E+00 2.505177849951E-01 -3.029585249918E-03 7.356294054719E+00 -1.322440460095E+01 -1.204853664530E+00 -6.623321219771E-01 -9.915276803489E+00 9.172025633558E-01 -1.193430892654E+00 2.432036514986E-01 7.572142336258E+00 -1.155655468165E+00 -5.121063467011E+00 -1.993702912271E+00 4.199992682753E+00 -5.519587689739E+00 -4.764159009922E+00 -9.467435136290E-01 -2.268594558508E+00 -3.856104989472E+00 6.268556099019E+00 4.748426923628E+00 3.362396162712E+00 -1.265612469932E+00 -6.641959671222E-02 5.128231330469E+00 -1.808926689099E+00 3.816545771837E+01
 -8.153285727477E-01 -2.695459447346E+00 4.852584129590E-01 -4.961596092197E+00 2.138001590137E-01 -1.923590387774E+00 2.627682011509E-01 4.597037249066E+00 -2.787604680900E+00 -2.670396691711E+00 3.088003504929E+00 -1.069467622240E+00 -4.420960217336E-01 2.020573866432E+00 -2.002330163343E+00 -3.634838991136E+00 -9.366228575980E-01 5.965014504345E+00 6.628645173325E+00 1.246032242659E+00 5.876266030206E+00 4.253988060067E+00 1.169597917507E+00 -7.792526069058E+00 -1.486443679467E+00 -5.011235625666E-01 -1.255189314308E-01 -7.310612050830E+00 -1.529709022305E+00 -8.544208085682E+00 4.290146837219E+01
 3.491843850734E-01 8.784377440840E-01 -5.598977625150E-01 5.048723321225E-01 6.961293672483E-01 -5.119665864694E-02 1.422355787242E-01 -5.850980001514E+00 4.145473560326E+00 8.319464310794E-01 -3.325619333678E+00 -3.394193427654E+00 -7.244254657940E+00 -1.240108408145E+00 1.873142032009E+00 -1.041340649464E+00 -2.271581468912E+00 3.364651550601E+00 -2.528884928005E+00 -3.739098979699E+00 -3.709209374700E+00 8.142592064491E-01 -4.643691393506E+00 3.953897165849E+00 4.423229107631E-01 9.248416348418E-01 1.663438688162E+00 1.737799585767E+00 3.739103059763E+00 4.491660338826E+00 -1.833295191694E+01 2.567886140888E+01
 1.662490344593E+00 2.968487364305E-01 -1.337312752366E+00 2.756050021595E+00 4.268367841213E-01 -9.728924774190E-01 -7.829200928667E+00 2.551298367456E+00 -9.323603644322E+00 5.940894340322E-01 -2.533177304021E+00 7.566861403934E-01 -4.855175520706E+00 -7.268490931347E-01 3.425559924166E+00 5.787524040268E+00 -1.966777377137E+00 -9.489260802117E+00 -2.085669792378E+00 -1.184575944047E+00 -4.054075381831E+00 -1.296154721795E+00 2.125104962538E+00 3.989645292118E+00 2.876454344356E-01 -1.899098992366E+00 3.153551285172E+00 7.297793138877E-01 -8.368069721659E-01 4.157916509481E+00 -2.097850906225E+01 6.932502896831E+00 3.374483174116E+01
 5.607254665954E-01 -6.096188246091E-01 5.587061355198E-01 2.098240395768E+00 -1.741595246559E-01 9.623826400643E-01 -2.131716199038E+00 5.591106844674E-01 -7.818772158079E-01 -4.208438943124E-01 -6.938288307154E-01 -7.431566938858E-01 -6.505134993879E+00 -4.076547176173E+00 -1.062799883349E+01 -3.220323352735E+00 4.759279656003E+00 -4.001768167567E-01 -1.148153113662E+01 -1.875210579566E-01 6.497600789800E+00 -1.059342690024E+00 2.219969733675E-01 2.546625444000E+00 5.882536159804E-01 -1.604875242691E-01 -1.608135375529E+00 -9.020340297310E-01 -6.589211066881E-01 2.019794445785E+00 -5.206045355536E-01 -4.198654847780E-01 1.181244377594E+00 2.485138605729E+01
 1.089468689967E-02 4.919621471389E-01 1.733951783525E+00 -1.360444662391E+00 8.785975380139E-02 -3.738733287746E-01 9.201153873388E-01 -2.189205485590E+00 -5.390449604479E-01 6.947436043031E-01 -1.070629913996E+01 1.095710423266E+01 3.187785704067E-01 -3.197739255132E+00 -2.762219674712E+00 9.075464600631E-01 -1.105860482937E+01 -8.746493060316E+00 1.414515547511E-01 -6.142652773075E-02 -2.638793276808E-01 2.244509196601E-01 5.715636970486E-01 1.635656989179E+00 -1.167954468033E+00 2.271624836501E-01 -6.530217172379E-01 5.695962813001E-01 2.874894442209E-01 7.382337779619E-01 5.749098726694E-01 -5.430706109890E-01 5.209889040773E-01 -7.229030249853E-01 2.532553656443E+01
 -1.172195986956E+00 -2.304758212368E+00 -8.279369736039E-01 -4.510836988795E+00 6.738558060077E-01 -3.321474488269E+00 4.060812490181E+00 5.136915255810E+00 1.232263704057E+00 -2.624363391513E+00 1.351180308081E+01 -1.246264693333E+01 -1.873919511511E+01 -3.375414745923E+00 -8.052562224465E+00 2.367012231178E+00 -9.316329109640E+00 2.110102054536E+00 1.367778473371E+01 3.009274912242E-01 1.016092456805E+00 3.728670187697E+00 -3.093124214429E+00 -6.450059943209E+00 -2.480132189362E+00 1.904630492595E+00 -1.071385610562E+00 -7.078884649829E-01 -2.521252873659E+00 -3.783747426218E+00 4.244064350648E+00 5.527113389400E-01 -3.780702026527E+00 -2.032519219254E+00 -1.154448229953E+00 4.607268176277E+01
 2.574733303628E+00 7.593835473244E-01 7.531512314871E-01 4.186823046284E+00 2.514072633714E+00 4.688060973681E+00 -5.321208899795E+00 -7.636798093313E+00 -2.560291611832E-01 -2.075421965998E+00 6.889415470837E+00 -1.312284919492E+00 -9.376730798067E+01 -1.315563672886E+01 2.702630580551E+01 -3.276609353401E-01 1.847286300482E+01 -1.544636240423E+01 -1.402266422074E+01 -4.470438616934E+00 -1.031237195036E+01 -5.494928033791E+00 -1.014302700414E-01 8.836627112948E+00 -3.956238361148E+00 -1.940682442052E-01 -4.679164029213E+00 -4.627148318683E+00 5.047665484658E-01 -1.429167918808E-01 -3.220495317136E+01 2.474467720714E+01 2.404588705939E+01 -1.857074703737E+00 -1.111185181984E+00 4.188787362557E+00 1.568930502414E+02
 3.464832779687E-01 -4.611751660669E+00 8.627050911448E+00 2.059204453842E+00 -3.729854125819E+00 7.322858151127E+00 2.207288301400E+00 6.799459104132E+00 3.531206671251E+00 6.393103611723E+00 -2.977336045320E+01 -3.087256306493E+00 6.243004012451E+00 -7.589151209707E-02 -3.480101146408E+00 7.444820566731E+00 -5.041676082146E+01 3.265698623106E+01 -5.294032248189E+00 2.237929982742E-01 -4.050431211071E+00 -5.303265337218E-01 -8.797783281681E+00 -6.199657821308E+00 3.777132141703E+00 6.881236890140E-01 9.798592504118E-01 -8.680433542410E+00 -6.501866655263E+00 -1.809663084561E+01 1.108591199448E+01 -1.030322301838E+01 -3.706294968583E+00 2.163465240993E+00 7.647717584900E-01 -3.155160794159E-01 -2.721562127697E+01 1.057343439787E+02
 -1.682938283775E+00 -2.349802405936E-01 -5.722938865195E+00 -4.056836168983E+00 -6.521006968392E-01 -7.625297264985E+00 3.870621366713E+00 4.457683169958E+00 4.024784404989E+00 1.249379426910E+00 -1.784252547849E+00 3.010015904930E+00 2.757794596287E+01 3.696376203895E+00 -7.520928990828E+00 -7.442501407479E+00 3.528182665840E+01 -2.115041329286E+01 -7.462557289113E+00 -1.382458587161E+00 -3.995788187696E+00 6.407590192607E+00 3.946559635036E+00 -7.981856128077E+00 -7.647332070297E+00 3.559663363500E+00 -1.981698666340E+00 -4.504343466727E+00 -1.235030838563E+01 -7.666428445341E+00 2.865315170452E+01 -1.926298034803E+01 -2.027034380791E+01 2.427510321961E+00 -1.092955388280E+00 -1.068062435198E+01 -3.738969028921E+01 -1.418207283641E+01 8.756151769129E+01

