#BIOSYM hessian 1
@Type: Hessian Update
@Units
 distance: 	A
 energy: 	Kcal/Mol
#header
@natom 19

#label
L1      L2      L3      L4      L5      L6      L7      L8      L9      L10     L11     L12     L13     L14     L15     L16     L17     L18     L19

#element
Li Li Li Li Li Li Li Li Li Li Li Li Li Li Li Li Li Li Li

#matrix
57
 1.517832726804E+01
 3.773018625247E+00 1.943716793869E+01
 -8.928070625827E+00 -9.362964856525E+00 1.684536263087E+01
 7.727515506751E-01 -3.011985826543E-01 1.099637318377E+00 9.194808905332E+00
 -1.052449334803E-01 -1.897454192790E+00 1.212929365625E-01 2.968676504501E-01 9.481762457759E+00
 1.227818201437E-01 -1.615874181244E+00 -1.242436089005E+00 -3.650734613348E+00 5.408220026021E+00 5.321660328149E+00
 4.762315313588E-01 -2.315341582925E-01 3.493094123231E-02 1.211443673687E-01 6.947578827579E-03 3.226372302098E-01 6.279903928123E+00
 -5.182562262659E-01 5.691377729565E-01 -7.859474527034E-02 7.517231806874E-01 2.053770470167E-01 -3.551718332821E-01 -2.681275043878E+00 1.730370525450E+00
 -3.428222752142E-01 -3.429281710659E-02 1.161941188758E-02 -1.476270555442E+00 -7.041613979562E-01 3.176912471761E-01 6.364032006279E+00 -3.230078413479E+00 8.607945796297E+00
 -6.510377621254E-01 1.498070471708E+00 -8.740310929366E-01 -1.755092727109E+00 -1.793777453293E+00 -3.650656684985E-01 1.477075766518E-01 -6.463153336469E-02 9.562698243964E-01 1.492905223262E+01
 -2.192015790839E-01 -5.241531936255E-01 -1.198264810667E+00 -2.531284825550E+00 -7.505768391609E-01 1.099763983975E+00 5.991116768267E-01 -6.668917014777E-01 3.542264499060E+00 1.585589159954E+00 1.716051081479E+01
 -1.319589618456E+00 -3.449167755368E-02 -9.239320338768E-01 -1.342942755163E+00 -1.421062731589E+00 -4.492519851908E-01 -5.978229445204E-01 9.961468248412E-02 -1.220047473832E-01 9.623121800834E+00 3.938555833969E-01 1.423245431307E+01
 -6.473065094860E+00 5.461116170494E+00 7.058583331299E-01 -5.511971316705E-01 -9.829408123818E-01 -1.287972159950E+00 -5.548966051020E-01 2.324742089951E-01 1.460960390919E-01 -9.181050981200E-01 -2.250046013070E+00 9.555488743634E-01 7.919684835081E+00
 6.717931611974E+00 -6.505149463525E+00 -7.645637651308E-02 1.315093662594E+00 2.038061421084E+00 7.787808161444E-01 -1.002680076064E+00 1.816254872316E-02 -2.382660054060E+00 -3.589427267518E+00 -5.381448477996E+00 1.301122845723E+00 -4.344389182341E+00 1.248522383684E+01
 2.577500781490E+00 7.152297214981E-02 6.172597960338E-01 -7.847112780665E-01 -6.756211961193E-02 7.338569880591E-01 8.806487183074E-01 -5.197348171255E-01 5.603122558442E-01 1.539875851442E+00 2.569435487251E+00 -2.276317895314E+00 -4.249142350570E+00 -1.379333298170E+00 7.965005386051E+00
 -1.105344228940E+00 2.527180135209E-01 9.657005988542E-01 4.071606503856E-01 1.914436445246E+00 3.484076344449E-01 3.813767168098E-01 -6.619270704499E-01 2.256616057945E-01 -8.313169105114E+00 1.172224491404E+00 -7.785954372821E+00 2.324594811233E+00 -7.917166640126E-01 1.385941334632E+00 2.312172831873E+01
 -1.789490907916E-02 1.743972034086E+00 -7.998447850748E-01 1.347263121069E+00 1.018506798708E+00 -6.416582551049E-01 6.376144511099E-01 -9.372665603783E-01 9.300830126884E-01 1.167744232178E+00 2.103410823287E+00 1.762087069161E+00 1.431560728397E+00 -3.470127081537E-01 -6.436027182319E-02 -3.474567486849E+00 2.212025654097E+01
 2.859781892577E+00 -5.409565646516E-01 4.467197429867E-01 -1.156322233491E-01 -8.118561736939E-02 -9.688956414191E-01 4.129116185582E-01 -8.046243601573E-03 1.746669470838E+00 -6.343457194332E+00 3.275279411319E+00 -6.383109996418E+00 -3.480855776569E-01 1.029498141288E+00 5.812144606006E-01 -1.781591395519E+00 -2.355627187737E+00 2.931423272317E+01
 4.479728899096E-01 4.164703149391E-01 1.114446748461E+00 9.859395228056E-01 -7.753779995568E-01 -8.354328085032E-01 -5.233438916273E+00 2.606658120162E+00 -7.134415473118E+00 3.007816460583E-01 -2.667844790756E+00 1.443657252670E+00 3.404407019901E-01 1.550902992747E+00 -2.641218907121E+00 -8.940434114891E-01 1.283562147771E+00 -2.685238348852E+00 1.722199965301E+01
 1.992285719829E-01 -2.009521792767E-01 1.347614171070E+00 6.465499539044E-01 5.842399068923E-01 -4.519833657613E-01 4.585362169009E+00 -7.668170244202E-01 4.083565243952E+00 -9.542113554868E-01 2.649820852233E-01 -7.747879964135E-01 -3.358503165925E-01 3.111920963263E-01 -8.319062420066E-01 4.628511812764E-01 9.447297412973E-01 2.360998543829E+00 -6.943968951465E-01 1.162914128357E+01
 -6.941262090911E-02 1.363743100707E+00 -4.214320007755E-01 1.939519678898E-01 8.315041714154E-01 -5.854048960308E-01 -7.246201790366E+00 3.722728789597E+00 -7.770187574307E+00 -1.136137610014E+00 1.704055495620E+00 -2.419926584600E+00 4.324936404907E-01 -1.631525083986E+00 5.486863046607E-01 1.460719815164E-01 -2.502286505448E-01 1.442197137087E-01 -5.050984338709E+00 -3.151014421437E+00 3.647729825781E+01
 -4.439926849779E-01 -2.249549767016E-01 -7.266855252685E-01 -1.632937485063E+00 2.847868308156E-01 6.694679176561E-01 -3.778555898608E-01 -8.083388780788E-01 6.459853854205E-01 1.161695774489E+00 4.451814199512E-01 2.944523801677E-01 2.586178156782E-01 -2.226090805778E-01 4.019860215072E-03 7.281230173173E-02 -7.963532762787E-01 2.060417828100E+00 9.371872222516E-01 -1.256853486702E+00 -1.023647029139E+00 1.605993019961E+01
 1.449469710768E+00 -8.331028918733E-01 -1.901616956233E+00 6.392471664891E-01 4.533565548526E-03 2.341098596948E-01 7.091570600686E-01 -2.454155495226E-01 7.737116430954E-02 -3.470349691864E-01 -6.197562413790E-01 4.435770265945E-01 -1.428294249620E+00 1.692200950323E+00 6.047351657762E-01 -6.835374100760E-02 1.514443174296E+00 -1.317235736189E+00 -1.173598030409E+00 1.715308282450E-01 -1.530575030934E+00 -1.228483934753E+00 3.456781173203E+00
 7.217689361194E-01 -6.523177573655E-03 -2.992414760664E-01 9.050352796638E-01 6.630123611455E-02 -7.382611285630E-01 -2.943891757811E-01 -1.367292515610E-01 -2.072006495072E-01 1.801253025224E-02 -7.643870733202E-01 -4.248628430839E-01 -3.157616660789E-01 3.600665881185E-01 9.153968997376E-02 7.124392705961E-02 -1.369152163244E-01 2.145766169459E+00 3.749454472404E-01 1.158253321918E-01 7.214716436058E-01 7.397142928444E+00 -1.493509919155E-01 4.246314829384E+00
 -1.585203006078E+00 -3.618760002471E-01 -3.023673332498E+00 -9.371694083559E+00 -1.947783045372E+00 2.854158576664E+00 -4.322347444829E-01 -1.160286449010E+00 2.412777788267E+00 1.906253798102E+00 2.241175387884E+00 1.522794629597E+00 5.591483993163E-01 -1.332800233803E+00 1.742751022779E+00 -2.899024625311E+00 -2.990114466278E-01 2.595854359623E-01 -6.568567949644E+00 -5.137376168491E+00 1.097276935647E+00 1.189793153647E-01 1.449874165187E+00 -1.646506969132E+00 1.832654500321E+01
 -8.477619548401E-01 -6.958951282498E-01 -1.084214511753E+00 -1.832174579995E+00 -8.748799838992E-01 4.494249238466E-01 -5.814246793234E-01 -1.915740668720E-01 8.234827712873E-01 2.614035308475E+00 1.390327916199E+00 5.170344980489E-01 3.854023795324E-01 -6.709393398993E-01 9.418441299282E-02 -1.624109358310E+00 -2.485051839978E+00 -2.183510982641E+00 -3.332068606322E+00 -5.711688316260E+00 3.200327805813E+00 3.595087119511E+00 -3.553832590156E+00 -2.162191837116E-01 7.900389784524E+00 2.389311753686E+01
 7.277771739115E-02 -1.728932985814E+00 1.342078446680E+00 2.747626665996E+00 4.487012949611E-01 -1.045666542139E+00 1.343147863265E+00 3.101283479620E-02 7.602221326948E-02 -5.344967091307E-02 -1.857604863987E+00 5.541353677978E-01 -5.622442489081E-01 1.016971368886E+00 -1.242402698723E+00 -4.067226069875E-01 6.294596254845E-01 -1.274541705883E+00 3.158672439038E+00 2.718323597453E+00 -2.468650193343E+00 -1.701598772413E+00 5.891517376414E-01 -1.494504440601E-01 -2.633462502295E+00 2.544955456959E+00 6.701580152980E+00
 1.108530161973E+00 -1.937107846065E+00 -1.592982411016E+00 -1.090401284382E+00 8.664980172183E-01 2.247707036097E+00 -3.245815580660E-01 2.913137592291E-01 -4.499216368914E-02 -1.880989994321E+00 4.145778805300E-01 -1.594024589189E-01 -2.482398916277E+00 2.137509985481E+00 -1.478506849028E+00 -1.272956994006E+01 1.581492789301E+00 -3.759831423229E+00 -1.292066486665E-01 -2.692999183348E-02 8.725875421323E-02 -2.793441435895E-01 2.769673246134E-01 -7.614495528129E-01 2.224808481225E+00 -4.090216550995E-01 -2.394091463038E+00 1.788894067551E+01
 -3.838682338660E-01 2.584151854925E+00 -1.247734649643E-01 7.366191469074E-02 -9.021163219075E+00 -5.008269341709E+00 2.910960201860E-01 6.776724048278E-02 4.309969688626E-01 6.922582923093E-01 4.886685259549E-02 1.183116630291E+00 1.256698245689E+00 -1.801071921242E+00 -1.283147230097E-01 1.086727075898E+00 -9.364705155626E-01 -1.217867466321E+00 1.100990653395E+00 3.224564444992E-01 -8.181296013947E-01 -2.727413552211E-01 -6.366045434812E-01 -5.749276793844E-01 -1.111102214615E+00 -8.528090280034E-01 -1.888606709550E+00 -3.119633389097E+00 1.429388743531E+01
 -2.930631714503E-01 1.009812382906E+00 1.155427633610E+00 1.288931439247E+00 -4.543959110293E+00 -3.962055046303E+00 -2.684580692843E-01 3.956011470375E-02 -3.661522927055E-01 1.591319823964E-01 -1.186839865466E+00 -6.784016140804E-02 1.513058112165E+00 -1.064368585346E+00 -3.997651525961E-01 -3.894012428524E+00 1.216506273741E+00 -5.848742736568E-04 8.716981586056E-01 8.682293954813E-01 2.083963800153E-01 -1.730668885098E+00 -3.138898095318E-01 2.131723140744E-01 6.904313742947E-01 -2.624558889432E-01 7.656169807152E-01 3.977281488970E+00 -1.020843766222E+00 1.082711605802E+01
 2.852756851340E-01 -1.607713855338E+00 1.263558647527E+00 1.374149138905E+00 1.261727832426E+00 -1.758244603390E-01 -3.412018638078E-01 5.457581357618E-01 1.276753582010E+00 9.813512784902E-01 1.403182415433E+00 9.125900783460E-01 8.252092605864E-01 9.903631798971E-01 -2.165846847272E-01 -2.890105256698E+00 -3.786321746428E+00 6.335231384396E+00 -6.920656828351E+00 4.116501261586E+00 1.324378907903E+01 -1.161366549185E+01 -1.510841660084E+00 -5.305162463810E+00 -4.867929501969E-01 -3.550979271110E+00 -1.488611735606E+00 -6.893256486005E-01 6.078948920003E-02 4.114674375592E-02 3.889289755581E+01
 1.508589492820E+00 9.059754297745E-01 5.508498112259E-01 -1.506867420722E+00 -2.680716969781E+00 5.509217675830E-01 -9.014767702697E-01 -6.545553848438E-02 -2.281018136412E+00 7.960916293860E-01 2.426568330037E+00 -3.579246485115E-02 7.809134902030E-01 -1.922936175737E+00 -7.068914289890E-01 -4.060341994396E+00 -1.144579640067E-01 5.843032915698E+00 4.582425247858E+00 -4.480233800934E+00 -5.015370660155E+00 6.795296016902E-01 4.190641286453E+00 1.040772027960E-01 5.702131717263E-01 -9.276740195272E+00 -1.648141800593E+00 -5.036812079657E-01 1.918191476997E+00 -2.028595695742E-01 7.044178034234E-01 3.821485393662E+01
 -6.622747928260E-01 -7.709614121930E-02 6.509609508979E-01 1.237201634401E-01 6.640901655291E-01 1.312017382340E+00 -1.877882763401E+00 -8.690360215749E-01 -2.406041073851E+00 -3.908377454577E-01 -4.270255692948E+00 2.134505147174E+00 6.251196829401E-01 1.529252695497E+00 -1.258784391395E+00 7.012829207147E+00 4.628477341266E+00 -1.853071666956E+01 1.250572350390E+01 -6.006792304605E+00 -1.665482511419E+01 -3.589892317721E+00 9.896313414876E-02 -3.183866371337E+00 -2.327171513309E+00 -3.886782554678E+00 -1.605467568666E-01 1.115075988212E+00 5.991295980711E-01 -5.200473098294E-01 -1.282398421252E+01 -3.365722209923E+00 3.707675293380E+01
 6.339660655791E-01 2.044660920222E-01 -4.413880099279E-01 2.933829108898E+00 4.350492635728E-01 -1.150560573247E+00 3.091474168361E-01 3.287825196944E-01 -7.156926696235E-01 -3.056711202812E+00 -4.436059662847E+00 -1.293633560195E+00 5.427985024210E-01 8.239971100400E-01 -2.950546372229E-01 -1.261634133354E+00 3.745383190114E+00 -1.604581728485E+00 6.949782242115E-01 1.202198050834E+00 4.518439016466E-01 5.894726732950E-01 4.166585338314E-01 1.250706906788E+00 -3.203220934680E+00 -1.224140970652E+00 2.492880097066E+00 1.635525294583E+00 4.418338260850E-01 5.273856169045E-01 -1.487668063925E-01 -1.796455409988E-01 -1.728851629534E+00 9.519041086324E+00
 -8.813363825917E-01 5.882240532465E-01 5.657017287360E-01 8.253427801977E-01 -1.260480917909E+00 -2.273690484092E-01 1.327942170697E-01 7.005242129337E-01 -1.457250731280E+00 -4.601115757299E+00 -8.307991959791E+00 -2.820326223027E+00 -7.037495199157E-02 -7.049380706139E-01 -2.361638080848E-01 3.197192451214E+00 -1.675334331570E+01 2.584438653787E+00 8.731724613956E-01 -7.805603958301E-01 -2.270241398980E+00 5.796819564154E-02 -2.404795778696E-02 4.662047176482E-01 -5.869720449048E-01 -1.629822287478E+00 -4.963992046121E-01 -5.334275578252E-01 1.757006375626E+00 -2.632353388806E-01 -2.470514698046E+00 -7.311925816883E-01 3.341496212986E+00 -3.430336358852E+00 2.684190048138E+01
 -4.415713609066E-01 7.493720004030E-01 -2.666030104027E-01 1.433350874426E+00 4.912717752303E-01 -3.299631746183E-01 5.061569560767E-03 1.454121212151E-01 -8.636354016217E-01 -2.663336846354E+00 -3.871944296182E+00 -4.235984330377E+00 6.410698249236E-01 1.325770131932E-01 -3.134070007444E-01 1.043359721257E+00 2.179127691401E+00 4.572329943503E-01 1.088092376242E+00 4.207486484899E-01 2.779757433069E-01 -1.105819912343E+00 7.729790958523E-01 -1.336612836535E-01 -8.740829964534E-02 -8.620740587030E-01 7.997281716856E-01 4.225068691478E-01 -7.594202159054E-01 9.753579226473E-01 -1.113539732377E+00 -1.461707364171E+00 2.305979133101E+00 -2.221014123044E-01 2.460038221805E+00 4.151469211431E+00
 1.386931382389E+00 2.098761697568E+00 9.497938529803E-01 -9.850530408288E-01 -6.130225873454E-01 2.900884455783E-01 6.754612496217E-02 5.174454375326E-01 -1.209627132000E+00 -5.880922647990E-01 2.455540872622E+00 -1.704458572123E+00 -1.174710859253E+00 -1.238670273017E+00 5.274566471040E-01 1.053624723477E-01 -1.371966068293E+00 1.261237457255E+00 -5.913622741694E-01 -1.598683323714E-01 -1.466639873833E-01 -1.165147488957E+00 5.138292589890E-01 -3.714340279563E-01 -5.974550793407E-01 5.558984872991E-01 -1.522486609477E-01 -6.689347217605E-01 4.881881130865E-01 -6.506679048402E-01 -7.365210774880E+00 8.354503097633E+00 -3.426135369353E+00 -1.096179751865E+00 2.942746227058E-01 -1.499292432973E+00 1.394259126209E+01
 -3.342272289107E-01 -1.123466052344E+00 1.813310625555E-01 -8.638939423341E-01 1.579462334162E+00 1.245937765828E+00 -8.592415515495E-01 -6.156886690853E-01 2.702963201300E-01 -1.269832863595E-01 -1.253135770997E+00 2.234901287693E-02 6.184336575017E-01 5.486743832959E-01 1.881353696389E+00 2.330082261128E+00 -1.288453411058E-01 -2.122969388584E+00 -1.291338264671E+00 -2.834819007943E+00 5.518251653438E+00 1.268988574474E+00 -1.542709633794E+00 -1.389467809409E-02 1.203382239815E+00 6.383558160410E-01 -1.916237981837E+00 2.959198315468E-02 -9.184713421239E-01 -1.013668009079E+00 7.489039359653E+00 -6.836473356433E+00 3.101834017281E+00 6.376761277640E-01 -7.381816900042E-01 2.427824728404E-01 -1.135074227322E+01 1.331850203129E+01
 -8.705219347289E-02 7.639479455635E-01 3.377952399027E-01 1.909059484066E+00 8.247316640411E-01 -6.585665490270E-01 6.799848438057E-01 9.707950703971E-01 -3.031250137732E-01 -5.540617883498E-01 -1.602040019423E+00 6.970439363031E-01 -1.832909137020E-01 2.536042887474E+00 3.380939227244E-01 1.038915153715E+00 1.454413067877E-01 1.387156005672E+00 -1.041999177405E+00 3.974345273716E+00 -7.356392350152E+00 -2.970970271006E+00 1.115883870806E+00 -1.009359680351E+00 -2.943970511662E+00 -3.406384023802E+00 -1.648657117318E+00 -1.067010531478E-01 9.869607473534E-01 1.833096170427E-01 -1.256128327432E+00 -9.520663962886E-01 -1.343911174366E+00 -1.752475000411E-01 -1.415320519305E-01 -4.228673020418E-01 5.080291180152E+00 -7.223018688560E+00 1.317494634201E+01
 -3.452158645838E+00 -2.939961863660E+00 6.818564296457E+00 1.663338441462E+00 6.564472205014E-01 -5.550537283947E-01 2.734423078988E-02 3.104952169880E-01 -1.146665891042E+00 -7.502980511094E-01 -8.107000055716E-01 -8.299779306302E-01 -9.766090590259E-01 2.273534215704E-01 1.136736251599E+00 -1.849333176484E+00 -1.071111180233E+00 -1.750702787008E+00 1.781215348890E+00 1.229722139397E+00 -7.623069712138E-01 -2.975037487991E-01 -6.927552129266E-01 1.968325995141E-01 -2.271634148482E+00 -1.492422349495E+00 1.522519835605E+00 1.236746255714E+00 3.032396279698E-01 5.902338671128E-01 9.839082688490E-01 -1.524345791047E-02 5.831719218208E-01 1.960559941433E-02 9.506606047971E-01 8.765224450916E-01 3.308724758986E-01 -7.991159215716E-01 5.081525452876E-01 7.791494535200E+00
 -2.509840615637E+00 -1.837333871959E+00 4.166892380521E+00 1.016731850435E+00 4.106799072522E-01 -4.372696396859E-01 5.655782659164E-01 -3.054691645703E-01 -7.133872367176E-01 -2.490250724913E-01 -1.354889174816E+00 -2.500776347060E-02 2.626767578676E-01 -2.243144470280E-01 4.219108216342E-01 -9.458113809534E-01 -1.071534123325E+00 1.636991322596E-01 5.395477111166E-01 -7.036265126871E-01 -1.286811793964E+00 -1.180709382754E-01 -1.311048275146E+00 1.250371564163E-01 -1.621662624977E+00 -2.434562196757E-02 8.314575749945E-01 -8.853133130808E-01 3.908290237673E-01 6.415350144104E-01 5.568030750850E-01 1.092762204189E+00 5.004428594531E-01 -9.460061210827E-02 8.382030238166E-01 2.355713379191E-01 5.477031148192E-01 -1.537387640645E-01 -4.937690389265E-01 5.188295034866E+00 5.458880105709E+00
 6.037778399038E+00 5.039994628108E+00 -1.377418945919E+01 7.727270869810E-01 6.455967775873E-01 5.394907450487E-01 1.045917322010E-02 2.035727782619E-01 -1.280246945877E+00 1.339540534367E+00 -3.434534439234E-01 2.965705013942E-01 -8.388868920852E-01 -1.408068046272E+00 -1.824434539385E-01 -1.804765407116E+00 3.050361474633E+00 -1.172614994524E+00 3.210429550084E-01 -2.140763039804E+00 -9.624712865121E-01 -3.305466365511E-01 3.596758380146E-01 3.979714231951E-01 4.041857819426E-01 4.160224198354E-01 -8.033209467017E-01 1.516011361565E+00 -3.700316524313E-01 1.303325162969E+00 -1.263690150821E+00 -7.388172350996E-01 1.685162208250E+00 2.554905926532E+00 -1.556981616367E+00 7.990552370426E-01 -1.304157116048E+00 -4.012793016151E-01 3.046520304987E-01 -3.527612807929E+00 3.781443288701E-01 1.937139560376E+01
 -3.901724175996E+00 -7.398136899278E+00 2.948711426109E+00 3.919425911371E-01 9.015764815697E-01 5.778458848972E-01 -1.441394244301E-01 -5.203374790189E-02 -1.610793989165E-02 -2.242115045070E+00 3.265771443806E+00 1.773995997287E+00 -3.432940960719E-01 4.103785376688E-01 -8.219259048208E-01 8.079611432776E-01 2.811333982873E+00 2.241335881821E+00 -2.725369018542E-01 -2.141523775916E-01 2.610873531661E-01 -3.281238434264E-01 8.683602125259E-02 -3.087550681875E-01 -1.532761698490E-01 -3.143325355060E-01 1.799092533408E-02 3.553041308031E-01 -6.195906518114E-01 -4.297111047686E-01 -2.878707378893E-01 -3.633168434884E-01 3.465950986156E-01 1.781925837891E-01 -2.432654172132E-01 -1.023784260402E+00 -5.459609705997E-01 -1.936415021372E-01 2.763809905955E-01 -1.680514475777E-01 5.146715179508E-01 1.832500778342E-01 7.449467420660E+00
 -6.658810668953E+00 -1.194893860351E+01 5.424216828763E+00 1.607265348157E-01 3.956021580584E-01 9.379437478056E-01 2.934361525500E-01 1.426348342831E-01 -3.091240133085E-01 3.672032419033E+00 -4.230618399708E+00 -1.877031981696E+00 -1.451253475552E+00 -8.416050388549E-01 -9.144837183924E-01 1.047058149123E+00 -7.000290924042E+00 -7.670703211536E+00 -3.943840867733E-01 -1.107573224083E+00 -1.869075020672E+00 1.792930326383E-01 -1.788161709727E-01 -2.808766425188E-01 -3.094853596037E-01 1.595880314950E+00 6.222326179127E-01 5.739950551622E-01 -4.764039365149E-01 -2.451248840405E-01 1.248827422049E-01 -5.131671379671E-01 2.445700311259E+00 9.259619406045E-01 2.332708819192E+00 3.291880946636E-01 -1.569647342824E+00 9.775975023665E-01 -5.827826425515E-01 1.189602001921E+00 1.230434864171E+00 -7.983444781766E-02 1.252210833767E+00 2.072051303410E+01
 1.723420745478E+00 4.992388205651E+00 -2.790451752249E+00 2.464003146843E-01 -1.452634191577E+00 -5.410842730273E-01 -2.117873717208E-01 3.825030418206E-01 -7.420766595872E-02 -4.880087045513E-02 -1.152405165224E+00 -2.620788542227E+00 2.577486599211E-01 -3.314476283763E-01 -8.180159240154E-01 1.937423175825E+00 -9.073258588204E+00 -6.507294007899E+00 -3.878828186223E-01 -5.180277166925E-01 -8.005061241360E-01 4.701455532566E-01 -9.576942889471E-02 1.352994376228E-02 -9.057426836492E-01 5.550947985441E-01 -4.158465260399E-01 1.755106544785E+00 1.847786015630E+00 -3.260297912983E-01 -6.413259334574E-01 -9.800576408449E-01 1.062895524307E+00 -2.886038262141E-01 1.979674387938E+00 -4.023786824732E-01 1.131599087796E+00 -1.072262416714E-01 6.734206929034E-02 9.891566394134E-01 -3.873540492591E-01 -1.049260998713E+00 -7.244851913462E+00 3.436047209796E+00 1.318957827989E+01
 -8.096608891079E-01 7.926033315791E-02 6.807631009466E-01 -5.051220152969E-01 -4.420066284366E-01 1.129468001856E-01 -5.388192412447E-01 5.586483875217E-02 -5.850215537294E-01 1.894476153276E+00 -3.700669341291E-01 -6.819984498689E-01 -1.537407629218E-01 -1.450020960162E-01 -2.217564118999E-02 1.526334669473E+00 -1.858455434032E+00 9.973489731152E-01 5.012672706414E-01 -1.143745007708E+00 1.038118991317E-01 -1.312354446109E+00 7.693083549702E-02 -1.038342283176E+00 8.706023478810E-01 -4.970232151924E-01 -1.809539031978E+00 -2.340968382605E+00 9.309702437678E-01 -1.088962269912E+00 -5.202634266447E-02 -8.339949004364E-01 3.450910306633E+00 -7.473514870443E+00 4.863374598099E+00 2.628029439119E+00 -2.653974301437E-01 -1.216199895575E-02 2.820975923087E-01 5.831411535736E-01 4.703284550790E-01 -1.739219078050E+00 -9.152928708965E-01 4.522661858025E-01 1.500302196537E-03 8.169600676624E+00
 4.859244684575E-02 -9.770868567385E-01 8.385126510881E-01 6.960306794221E-01 6.429837381496E-01 -7.786112482597E-01 -4.558630774427E-01 -1.330029603031E-01 -2.572859602013E-01 4.024252946713E-01 6.875720357400E-02 7.833130757587E-01 8.839886426928E-01 5.295916137793E-01 -4.013796519210E-01 -1.394461241895E+00 1.220080459187E+00 -6.166973115956E-01 -2.731130764863E-01 5.618752081047E-01 7.218610586947E-01 3.824106405546E-01 -2.844892154097E-01 1.060325527178E+00 4.723610749245E-02 3.423644830472E-01 1.246644458283E+00 2.343439595168E+00 -6.167026713000E+00 7.214554397448E+00 8.163813006899E-01 -6.462102668353E-01 -1.667672759162E+00 2.069785417877E+00 -4.444793686139E+00 -1.013166277249E+00 -5.071966799313E-01 1.545463496731E-01 1.825948412809E-02 -5.391101482152E-01 -1.828813264547E-02 1.112014909368E+00 1.922817670099E-01 9.982624501030E-01 -2.039697811473E-01 -3.716836749014E+00 8.885294268098E+00
 -6.773024481594E-02 2.801929407729E-01 2.189026823862E-01 -5.780684515020E-01 -3.402274493117E-01 5.674106425850E-01 4.080813790076E-01 2.623281323814E-01 3.062322003577E-01 -6.276272468260E-01 7.093243714602E-02 4.589218041850E-01 -4.308827388832E-01 -4.638724040828E-02 1.212196226588E-01 9.218153788958E-01 3.292381569449E-01 -1.337917026243E+00 1.970213107937E-01 1.142225880529E-01 1.575259020199E-01 6.035063257308E-01 -7.698688007164E-01 -5.175626934261E-01 -1.824244768480E+00 1.140544291702E+00 -4.499458862938E-03 -2.058421075240E+00 6.571202824627E+00 -7.573521570303E+00 -9.291295714292E-02 2.662840443176E-01 -9.902273022210E-01 3.967774415559E+00 -1.952962234679E+00 -1.979267118616E+00 1.576699043568E+00 -2.370134061555E-02 1.860908339458E-01 1.379751765377E-01 -4.241109456354E-02 -1.138647192276E+00 1.626740960106E-01 1.518700140603E-01 9.584545214916E-01 -2.861050919330E+00 -6.338814483394E+00 1.046426145412E+01
 1.760761627278E-01 -2.663628953580E-03 -7.375133133897E-01 -8.524193688143E-01 5.786236704009E-01 1.455671632107E-01 -1.522893513011E+00 5.841596243813E-01 -1.953058330959E-01 7.173034684936E-01 1.036028954058E+00 6.346669281241E-01 -1.306668375745E-01 -1.332227002539E-02 -6.882366673636E-01 1.357576289680E+00 -8.430248307113E-01 -2.874801875230E-01 3.221578786233E-01 -1.884202944601E+00 -3.940102948591E-01 1.972775020103E-01 6.099476853274E-01 9.480400048325E-02 3.778509786039E+00 1.893754199507E+00 6.558267316769E-01 -2.270707880279E+00 -2.465437139587E-02 -2.065485671988E+00 -1.812916731261E-01 -6.677364857315E-02 4.843171365419E-01 -9.052251669972E-02 -4.268754550482E-01 -1.970119692336E-01 -2.087801279224E+00 6.246542703669E-01 -6.277718305765E-01 4.315876516010E-01 -5.576434441253E-01 2.832955006871E-02 -7.375578522765E-01 -4.321915210253E-02 9.356832724576E-01 -1.578948753753E-01 -1.310399834340E+00 1.121305624089E+00 6.201408338467E+00
 -1.146442771339E+00 3.057910081784E-01 1.008152614040E-01 -9.721941928356E-01 -3.934865958127E-01 9.845117301415E-02 -7.882700795330E-02 7.875000816359E-02 2.344810334126E-01 1.050376625469E+00 7.868041193762E-01 9.353583686973E-01 1.863977577542E-01 -6.411348601838E-01 4.670472462320E-01 -1.392467019576E+00 3.151802654150E-01 1.612851851818E+00 -7.613266472220E-01 -1.267747911858E-02 3.339039187168E-01 2.601745572182E-01 1.953451837305E-01 -2.115274469743E-02 1.972619112569E+00 7.407813623040E-01 -1.097828709542E-01 -4.324448196124E-01 1.211858856761E-01 -3.432005785602E-01 -3.344344198440E-01 -6.107184147546E-01 -2.034842734083E+00 -1.189323681795E+00 -9.551698217007E-02 6.003195431674E-02 4.446402248679E-01 -6.927012938606E-01 3.145191662283E-01 1.605770276346E-01 -2.461335077935E-02 -8.522499134372E-01 1.763062375151E-01 -1.056561778051E+00 -7.190257037236E-01 9.371477599776E-01 -6.971756147472E-01 -1.073483552257E-01 1.101228687751E-02 9.352850240813E-01
 -3.165745393706E+00 1.105705091591E+00 -3.348126635805E+00 -1.115902325630E+00 -3.502638349398E-01 1.288703026215E+00 1.430868971427E+00 -7.174509671367E-01 6.901715961589E-01 -1.099451124065E+00 9.033177813875E-01 1.591934597091E+00 1.931916418704E+00 -1.028054309361E+00 -2.661266705367E-01 2.786747040654E-01 -5.383509322772E-01 -1.472764939709E+00 -2.076762011436E+00 5.862511318225E-01 6.283131562465E-01 1.060270962048E+00 9.495896415995E-01 -3.747734088944E-01 1.639222436433E+00 5.332816905633E-01 -2.202464425126E-01 9.352763132574E-01 3.930152033284E-01 -7.098546374257E-01 1.790195825331E-02 -1.533372088979E+00 -1.018533104763E+00 -1.346512832174E+00 1.397873855537E+00 3.755474011917E-01 -6.152166183812E-01 7.488391868820E-01 -1.190926781532E+00 -9.234344136432E-01 6.746386388773E-02 1.392032125892E+00 1.464901485408E+00 -1.251358256156E+00 3.278516285207E-01 9.207843554683E-01 -8.314175894873E-01 -4.627011941872E-01 -4.275360917410E+00 1.219597724930E+00 9.845479313152E+00
 -5.176204637110E-01 4.961460871831E-01 -1.046815862512E-01 -6.960582316693E-01 1.022537208641E+00 4.809296118425E-01 1.427116690080E+00 -1.453526028280E-01 2.246700393696E-01 -1.995368603059E-01 -1.118932078377E+00 -5.186999900990E-01 -1.019451304738E+00 -5.493054909274E-01 1.320975776677E+00 5.891035535113E-01 -2.459586576406E-02 4.958643214210E-02 -2.741558921219E+00 1.490476432626E-01 -2.091221702348E-01 -3.782114660422E-01 4.482488100458E-01 2.012749926742E-01 9.389334478623E-01 -1.024865302100E+00 -2.039395182057E-01 4.124953193195E-01 -1.173560013095E+00 4.195859953489E-02 -1.316295888234E+01 -1.078705687547E+01 6.789569544780E-01 3.165816646326E-01 8.940627034430E-01 1.577119426612E-01 -4.677949187071E-01 8.614156134203E-01 4.423818277455E-01 -1.020101718105E+00 -1.072323220936E-01 -7.859588312549E-02 -1.978954036755E-02 6.503929111725E-01 3.477562397379E-01 4.786356236560E-02 -8.892661263784E-02 -6.702258826602E-02 9.014295755914E-01 2.935561890457E-01 -7.138072104220E-01 2.272409513575E+01
 2.533164167958E-01 3.328828045125E-01 1.279375598833E-01 1.945144651082E-01 3.240313777271E-01 -3.673388231751E-01 2.210240442692E-01 4.423051209234E-01 -3.623149589950E-01 -8.764882301965E-01 -9.354280250007E-01 -4.193411967271E-01 -6.890837897367E-01 2.484918077742E-01 5.586877896240E-01 1.153491770363E+00 -1.647639572209E+00 -2.896863872937E-01 2.033944159544E-01 -2.412706209668E-01 -1.992669083782E+00 4.888885265976E-01 -3.492436975127E-01 7.472634429396E-01 -1.328070036968E+00 -9.977358959765E-01 5.334639383692E-02 -2.017837589067E-02 1.345723235058E-01 2.169603245053E-02 -7.722072391099E+00 -4.619332962142E+00 7.565697532693E-01 1.331042033051E-01 1.468581951692E+00 -2.270099190532E-01 6.468319293456E-01 -1.752737372170E-01 1.880878707498E+00 8.190119889027E-01 1.010817308710E+00 1.385232248231E+00 -3.042083409917E-01 5.383584649321E-01 1.626622767915E+00 -4.376345110985E-02 -2.907712180111E-01 4.998410796585E-01 6.067877435377E-01 6.603791392874E-02 -1.444151654757E+00 5.295553392342E+00 6.149168470354E+00
 -2.651037646360E-01 -1.703558262382E+00 -1.075973298290E+00 -3.124954940451E-01 2.627261835514E-02 3.541922353177E-01 -8.504989707111E-01 -3.765057938289E-01 3.161781533039E-01 -3.866448353828E-01 1.052894969870E+00 6.661811961466E-01 1.446349237305E+00 9.161240282820E-01 -5.426587242208E+00 -9.554789678016E-01 -1.295829479288E+00 9.909305658859E-02 3.319037643815E-01 -2.204855975674E+00 9.498713722475E-01 1.398723001916E+00 -3.545882429264E-01 1.956597035472E-01 9.013276006410E-01 1.668654777440E+00 -3.454103335085E-01 1.335092764379E+00 -2.998652926861E-01 -9.774356974379E-01 1.173124086451E+00 3.892921415563E+00 1.249982258386E+00 -1.468446679917E+00 -3.161901094179E-01 -3.672829169823E-01 -1.411074157638E-01 -5.530553410750E-01 -3.578695304767E+00 -1.481416221336E+00 -4.893632805295E-01 -6.567416111848E-03 4.479978422779E-01 1.973090945505E+00 1.354934289092E+00 8.924160382041E-01 -2.734002520216E-01 -2.559218756785E-01 1.614667677527E+00 -6.572444779029E-01 -6.479490585274E-01 -9.786030699330E-01 -2.567890507822E+00 7.346167179638E+00