#BIOSYM hessian 1
@Type: Hessian Update
@Units
 distance: 	A
 energy: 	Kcal/Mol
#header
@natom 19

#label
L1      L2      L3      L4      L5      L6      L7      L8      L9      L10     L11     L12     L13     L14     L15     L16     L17     L18     L19

#element
Li Li Li Li Li Li Li Li Li Li Li Li Li Li Li Li Li Li Li

#matrix
57
 1.687910050462E+03
 -9.496161611895E+01 1.573057313520E+03
 7.506347894321E+01 7.258912970382E+01 1.526304596224E+03
 -1.466219360460E+02 -4.557683125825E+01 -1.188298094615E+02 1.517973630199E+03
 -3.259366221550E+01 -1.090960772816E+02 -3.558007256532E+02 -3.060335481093E+02 1.390535871676E+03
 1.646811240990E+02 2.055403598600E+02 1.292548520214E+02 2.334721553475E+02 -6.593263760885E+01 1.120478057661E+03
 -9.666544258743E+01 -3.130473395786E+02 1.151998899083E+02 5.012915378775E+01 6.386311807322E+01 4.543667887561E+00 1.230905695375E+03
 2.890635017939E+01 7.811193076640E+00 2.808035268713E+02 -4.254454636363E+01 2.957812296429E+02 -6.859126532493E+01 -1.166196075312E+02 1.241796197407E+03
 2.979951951732E+01 3.080710903469E+02 4.113021031046E+01 -1.487359027110E+02 -1.317844157655E+02 9.967881618749E+01 -1.807255756168E+02 -3.582906231600E+01 8.581938054840E+02
 -4.355249152268E+02 1.306285325208E+02 -7.294183769169E+01 6.268518351494E+01 -1.679076628496E+02 -1.638608959963E+02 5.872198390385E+01 -2.485172036313E+01 6.207157646468E+01 1.372753753884E+03
 8.536647507557E+01 1.464991558861E+02 -9.518202666702E-01 2.918760570490E+00 -1.027638240481E+02 1.279383001119E+02 -8.934809633659E+01 -1.467595646286E+01 -1.501747558673E+02 -3.289043986648E+01 1.595457400617E+03
 1.568828888041E+02 -1.012962681938E+02 -1.116559075369E+02 -1.439935907159E+02 -1.059081291465E+02 9.812928744706E+01 6.936278688005E+01 7.197973685981E+01 5.903056261926E+01 2.439317927680E+02 1.156708495284E+02 1.874848667632E+03
 -1.003902005793E+01 9.696330445238E+01 -3.247440053820E+01 -6.920311107665E+01 -1.111968843430E+01 1.548311080793E+02 -1.664592922888E+02 2.895069521008E+01 3.399044233386E+01 -4.752641195590E-01 -3.466937925537E+02 -1.008763538167E+02 1.595721450249E+03
 2.141820005805E+01 2.296290063822E+01 7.186309416474E+01 -2.050220575938E+02 1.956760616153E+02 3.272980779415E+02 -7.033945512108E+01 -2.818152050961E+02 2.117216287232E+01 6.113713729518E+01 -1.564855816696E+02 1.044122144765E+01 -1.359549217031E+02 1.693607284871E+03
 -1.229865188851E+02 -1.187737623458E+00 3.699648827220E+01 -3.474998503500E+01 6.067826593501E+00 2.761004778872E+02 1.043803124290E+01 1.713014301090E+02 -2.357090255354E+01 -2.088419641338E+02 -1.309801510562E+02 2.280929953323E+02 6.663316110067E+01 -2.693741457323E+02 1.143901045380E+03
 1.482931659573E+02 3.692900295334E+01 -8.040596185767E+01 1.988698733629E+02 5.623466237004E+01 -9.111792436070E+01 1.204923382822E+02 -2.294199914974E+02 -7.667707329230E+01 5.708947639398E+01 1.421720717732E+02 -7.293408365072E+01 1.518394525635E+02 -1.698059297450E+02 -2.042267128784E+02 1.014021560917E+03
 -5.211094311817E+01 -7.007456551512E+01 -9.049939834915E+01 -8.409799537679E+01 -8.369072976617E+01 -1.913413516951E+02 1.713733430534E+02 5.003133808140E+01 -3.860228376169E+01 -1.067957365636E+02 2.183214119371E+02 -8.896707337246E+01 6.511355084062E+01 2.270562825865E+02 1.209637008929E+01 -3.997720328478E+02 1.371926783529E+03
 -2.455893902692E+01 2.722984649232E+01 5.648625382187E+01 2.130266486427E+01 1.546315575821E+02 -9.643048745083E+01 -4.453567047224E+01 -1.876981091211E+01 5.459150485172E+01 -9.480516717685E+01 3.513942688428E+02 9.218558655772E+01 -8.913876174066E+01 -9.538736387972E+01 -2.072287050334E+00 1.677255203119E+02 1.483628034563E+00 1.016807190796E+03
 2.395897382282E+01 -2.261617791897E+02 -1.463086128697E+02 2.799544789550E+02 -9.636936532451E+01 -2.033950038819E+01 -1.213035253896E+02 2.110263357400E+02 1.258817428865E+01 1.324653944541E+02 1.228036486853E+01 5.066786537579E+01 -4.291309503743E+01 2.592280237469E+02 5.596314738618E+01 2.572286668781E+01 8.057267271650E+01 -7.040469239558E+01 1.393472544406E+03
 3.525081536086E+01 -2.875956573479E+01 -7.531931327844E+01 1.439027647046E+02 1.263119108588E+02 8.039984211602E+01 6.754295487501E+01 -4.682597820987E+00 1.548279322827E+02 -1.428770739340E+02 8.533965406079E+01 8.292289445399E+01 1.752749873608E+02 -4.778424659645E+01 -1.174740269123E+02 5.858713250770E+01 7.223384092840E+01 -1.396854740407E+02 1.765847681338E+02 1.894788460285E+03
 4.087244338455E+01 -1.066518620895E+02 2.344051472526E+01 -2.097351944754E+02 1.254591042997E+02 4.069998458126E+01 -1.202740387536E+02 -2.850076107944E+01 2.415632193386E+02 2.110759849911E+02 -2.302952446511E+01 -1.445570442151E+02 -9.976058027777E+01 -1.420721816192E+02 3.121724819201E+02 9.026973235486E+01 -6.721675826840E+01 3.988759808406E+01 2.868020816640E+02 1.335838625388E+01 1.658423826897E+03
 1.637770491607E+02 9.705739320321E+01 -5.892775864534E+00 -2.824464871690E+00 1.251165366448E+02 -1.889382887760E+02 1.158347654250E+02 -9.312719150562E+01 -2.883576754250E+02 3.838502445164E+01 1.322252637888E+02 4.530685194280E+01 3.168488300550E+02 -3.113323864032E+01 1.125926460623E+02 1.721430214508E+01 4.940179875216E+01 -9.478186775897E+01 2.126385885641E+02 -2.250154148036E+02 -6.522971335249E+01 1.655824741023E+03
 4.166231250119E+01 4.730491059677E+01 2.699200419543E+01 -6.398001479446E+00 2.516740500821E+01 7.129148655438E+01 1.486451395622E+02 1.487559715152E+02 -1.207725549373E+02 1.864428155524E+02 3.272900079359E+01 -7.463054427509E+01 2.051527950422E+01 7.743615769370E+01 -1.307772958436E+02 8.185454425380E+01 -1.019302417076E+02 1.087272766713E+02 -6.489197247956E+01 5.911535564290E+01 1.518372588157E+02 4.207631309114E+01 1.781290951622E+03
 -7.388522284698E+01 -1.439722701346E+02 1.247110038508E+02 -1.033252698441E+02 -1.060080397469E+01 -1.276756642371E+02 -4.387093628451E+01 -2.235952372569E+01 1.537353205410E+02 4.614660983824E+01 9.491242444530E+01 -6.571471913160E+01 1.102048687527E+01 -8.213274217138E+01 -1.342937609616E+02 1.693922232428E+02 -2.701552369102E+01 5.501765733631E+01 -2.429370122404E+01 1.235000185354E+02 9.360959089189E+01 1.185818544570E+02 -4.015305685983E+02 1.295673321876E+03
 2.254929918629E+02 3.852853581553E+01 1.012017278362E+02 6.997742902761E+01 1.158390170715E+02 -9.172138276472E+01 1.480053773359E+02 1.870495533997E+01 2.713133935614E+02 3.721557733648E+02 -1.046398445237E+02 7.813535216020E+01 -5.715002804237E+01 1.844450137498E+01 8.434605589686E+01 9.537735014341E+01 9.044706660405E+01 -5.058935375550E+01 -9.931339959327E+01 3.290078366078E+01 6.638846840031E+01 -6.293484488322E+01 -1.867733730048E+02 -8.932906187819E+01 1.320318590415E+03
 4.723291334534E+00 -1.368317779347E+02 5.109904104034E+01 7.801764055897E+01 1.506575169480E+02 4.538672966102E+01 6.607639529348E+01 -2.600905684054E+01 -1.320608669630E+01 5.788671992719E+01 5.718346875077E+01 7.570787217159E+01 -7.755754110521E+00 5.637681384623E+01 2.279189650719E+01 6.814620128217E+01 -1.042955838862E+02 -2.731184566646E+02 -1.049124747628E+02 -1.470006075696E+02 2.925215159803E+01 -5.297686323045E+01 4.521785929105E+01 1.868636249063E+02 -5.036070226830E+01 1.654897979200E+03
 -1.180116347256E+02 -1.708794354505E+02 9.166189922570E+00 -5.798656307605E+01 -2.533776176805E+02 1.673190403240E+02 3.244656740042E+02 4.851093916902E+01 1.814622515351E+02 -1.490270546855E+02 1.223611460920E+02 -5.826605938126E+01 7.621362824473E+01 -2.881856061732E+01 1.902820672909E+02 -1.388008893075E+02 6.846021913010E+01 -7.940935298897E+01 8.016106127770E+01 -9.815319808058E+01 2.626875448407E+01 -1.153777092944E+01 2.127658347450E+02 1.875112170836E+02 1.137956050915E+01 -1.651403581199E+02 1.497700293684E+03
 9.042099704714E+01 -1.041746108205E+01 -9.522905118538E-01 -5.440920480062E+01 1.121793890250E+02 -6.385148371600E+01 8.091895359732E+01 -6.208759605000E+01 1.927091978143E+01 -1.206139050678E+01 -1.366760135429E+02 1.218741602390E+02 3.632927876012E+00 -1.553649590909E+02 -1.686497006090E+02 6.423509935430E+01 -1.196496753124E+02 -3.341561241397E+01 6.456146858531E+01 -8.312133275594E+01 -1.924202034843E+02 -2.303933310544E+02 -1.821777445556E+01 -8.664629648797E+01 -5.254077153767E+01 -5.021711772658E+01 1.841654596543E+02 1.709377306989E+03
 -2.374104737591E+01 6.494241161241E+01 1.301441132430E+02 -2.253755892653E+01 1.341413899088E+02 9.746574879233E+01 4.304498275120E+01 1.862411874305E+01 -3.036329123190E+02 2.249859381454E+02 2.068883960011E+02 -1.982593559074E+02 6.902153462108E+01 -3.215879162142E+01 1.780062089021E+02 -1.264385241490E+02 5.489633909128E+01 -1.398674018866E+02 -2.831184048833E+01 1.250350371742E+02 -4.163510160541E+01 -4.813204414759E+01 -2.576754274494E+02 -1.299955907254E+02 1.376324052538E+02 1.318615382302E+02 6.705286161361E+01 1.624789849064E+02 1.500504813103E+03
 5.845868175972E+01 -1.449884915460E+02 -1.140855899185E+02 7.207564814830E-01 4.713057885889E+01 1.855485927989E+02 1.601961519896E+01 1.731650213908E+02 9.198930723589E+01 1.890599726922E+02 5.459922664445E+01 -1.480745996705E+02 -7.123734945875E+01 1.531703312074E+02 -3.418145236506E+01 -1.921240112294E+01 -2.689184860645E+02 8.251311161462E+01 -7.420684101230E+01 2.207214304125E+01 -1.435719812668E+02 1.121852012611E+02 6.507650524593E+01 2.217774216110E+02 8.556090835397E+01 -2.339588334684E+02 7.535311941071E+01 -3.967195229796E+01 1.729114128579E+02 1.628013149313E+03
 -1.414025454390E+01 1.070235083958E+02 -3.731322382441E+02 -2.349392395107E+02 1.018074741481E+02 5.716961223605E+01 -8.480833104501E+01 1.460115282516E+02 1.378869520957E+02 1.892575710758E+02 1.829693388605E+02 -3.006051194396E+01 2.021861172512E+02 -1.731648442076E+01 7.962975281316E+01 1.309013749898E+00 6.826339799943E+00 1.672293775527E+02 1.663608025380E+02 -9.599897061991E+01 -1.196621266853E+02 -9.631125113664E+00 2.703774566192E+00 3.580668520197E+01 -3.879815420120E+01 -1.016425856814E+02 9.864829714925E+01 2.344173798269E+02 7.933291266782E+01 -8.451998451577E+01 1.081155393256E+03
 7.499487090083E+01 5.232422583720E+01 -2.640622021235E+01 9.662141438650E+01 5.293867705725E+01 -2.621240944522E+02 2.086476417161E+01 -2.781384954709E+02 2.763526962255E+02 6.211002534035E+01 6.096312952593E+01 -2.176006346328E+01 -2.248120545617E+01 7.088121408808E+01 8.160263992190E+01 -1.371530982824E+02 -1.531976223943E-01 1.118699526504E+02 -3.173359775842E+01 3.321552713454E+01 4.344251486551E+01 1.163016830195E+02 -4.434792096775E+01 -9.692233989997E+01 -7.788899163406E+01 -2.947241152708E+01 1.084528530359E+02 8.316315990928E+01 5.947540776986E+01 -2.618817665750E+01 -1.386453531404E+02 1.839486396130E+03
 2.520603869507E+01 -5.303964417700E+01 1.818382574913E+02 -1.476654529287E+02 -1.872185990574E+02 -2.082853745163E+02 3.783323077806E+01 -2.941091131605E+02 -1.266800970548E+02 5.197145575380E+01 -1.314905844475E+02 4.939138727238E+01 -3.951793094710E+01 1.546774266070E+02 1.420135680318E+02 2.316494173413E+02 9.720561147177E+00 1.617781119302E+02 -6.455611047193E+01 9.657433732449E+01 6.787170702527E+01 6.329493996946E+01 8.165324441033E+00 8.608306656607E+01 -2.243324367740E+00 -2.424586991471E+02 -4.771929976445E+01 2.748130586525E+01 1.440235180933E+02 7.995318719302E+00 8.193826842923E+01 -2.185960031605E+02 1.525639835598E+03
 -6.216816650583E+01 -5.149864592698E+01 -3.826745779236E+01 -1.362745873576E+01 -7.459521885756E+01 1.585034948697E+02 6.319900589922E+01 -1.259905615165E+02 7.478629870926E+01 8.026479607273E+01 7.513742770038E+01 -7.317717661167E+01 2.194731027796E+01 1.650634073186E+01 3.448632692624E+02 1.339920089908E+02 1.281170100503E+02 -2.765884300994E+02 -1.231379855996E+02 8.493720141996E+01 -1.219893650777E+02 1.361800018895E+02 -1.378066787105E+01 -6.008531578162E+01 1.115811574615E+02 1.280690163823E+01 -8.986409741914E+01 1.156931783942E+02 -3.567705555989E+02 3.099753014389E+00 1.048334458149E+02 -1.484202303750E+01 6.076652736747E+01 1.475808454246E+03
 2.775532979813E+01 1.346215470398E+02 -3.857620919675E+01 -1.706139475265E+00 -6.871687899716E+01 5.396895744131E+00 4.392118056524E+01 5.180085397907E+01 -1.906424750428E+02 -6.456025257374E+01 -4.016123060859E+01 2.431571603722E+01 -8.024058472215E+01 4.513284865633E+01 1.612038333577E+02 2.667086184874E+02 1.933449194478E+02 -2.049752119301E+02 2.350329701774E+01 -9.448141625929E+01 6.682983104453E+01 -1.502365312204E+02 3.334860517979E+01 1.796698598760E+02 -6.179481863467E+01 -9.200144899884E+01 -1.176936895649E+02 3.634755337171E+01 -1.769586962637E+01 1.164847404284E+02 6.676753445944E+01 6.619360966833E+01 -9.300683692066E+01 -2.381260805352E+00 1.979180513554E+03
 -7.206090582058E+01 5.059353048646E+01 1.244330475573E+02 9.542053127769E+01 -7.414559011277E+01 -2.111484331873E+02 -2.312701549679E+02 1.404812970636E+02 5.745495878390E+01 -5.780422097892E+01 -1.293595530290E+02 8.086286336834E+01 -2.820458425255E+01 -1.488015653695E-02 1.403519174023E+01 -1.896805276584E+02 8.830723075074E+01 1.182107148889E+02 -6.007696731044E+01 1.195877316797E+02 4.951065818599E+01 1.656552757521E+02 -5.211524462180E+01 1.108022918333E+01 -1.463709319967E+02 2.554516864010E+02 9.280373915148E+00 2.183917893983E+02 -2.182628992754E+02 4.464695488837E+02 -7.246974067669E+01 3.128332806530E+01 3.498000677815E+01 8.690075702075E+01 6.331658331950E+00 1.405218514653E+03
 4.688651363287E+02 1.285097007708E+02 -1.563706316790E+02 8.703611870855E+01 -1.152241122259E+02 -8.417269860438E+01 -2.309501046229E+01 1.279514505427E+02 -1.187500738535E+02 3.031179386135E+02 -1.701814398999E+02 -2.324817707942E+02 -1.580177580032E+02 -6.826741625000E+01 5.583026765671E+01 -5.625036969307E+01 1.826351109614E+02 7.003455928432E+01 1.243784808255E+02 -5.813692449380E+01 -8.322490816830E+01 -1.390041575589E+02 -2.585359524491E+01 4.445193092382E+01 -3.643063584883E+01 5.775528579610E+01 7.838507600940E+01 -4.103106812411E+01 -3.566885942164E+00 -8.270227900045E+01 6.016591259517E+01 -4.351610910649E+01 5.744432376505E+01 7.646215124593E+01 -1.007168030954E+02 1.121648525146E+02 1.590679294753E+03
 1.042758532652E+02 -3.596828190269E+01 -1.070898175273E+02 2.194035118727E+02 -7.060738590830E+00 -2.195089499877E+01 -1.710879975558E+02 2.702083705001E+02 1.709037280131E+02 2.755063653861E+01 1.885176066087E+02 1.490526062306E+01 6.955179089984E+01 1.563804000949E+01 -1.166112064283E+02 1.265500346241E+01 1.444851394095E+02 -2.815279843812E+02 -1.805122154981E+02 -4.591762507752E+01 -1.964869260992E+01 3.173431037676E+01 7.255910142809E+01 -7.235538305600E+01 1.549083328661E+02 2.571991607337E+02 1.161173542162E+02 -5.674080976338E+01 -1.677564332333E+00 -6.855521673652E+00 1.377597306471E+02 8.246524042584E+01 3.688618839751E+02 -9.244183140188E+01 4.566083613568E+01 2.805355157344E+01 -1.370355307040E+02 1.537646474725E+03
 -9.771186359154E+01 -3.321539900817E+01 7.204536334848E+01 3.753196215917E+01 1.281377354196E+02 1.806765820727E+02 1.915542699290E+02 9.888159565490E+01 9.648829758346E+01 -1.186208134099E+02 -1.087680236117E+02 3.514824518779E+01 1.394018042625E+02 1.071501854055E+01 9.379807541774E+01 2.478865323043E+02 -1.148572111067E+02 1.760945720302E+02 2.828040593961E+02 -1.787102077436E+02 -1.383441891702E+02 -1.771967810947E+02 -1.944417318466E+02 -1.784633782651E+02 -1.858273745020E+02 4.156767768542E+01 -3.411933297420E+01 -1.674287089335E+02 -7.399868667790E+01 8.320480651746E+01 6.315025885041E+01 2.288930621334E+02 2.447695470408E+02 -1.269689864601E+02 -1.734537890066E+00 -1.197906559217E+01 1.063346136504E+02 1.750091189333E+02 1.437293046192E+03
 -5.362811924574E+01 1.301078185413E+02 1.542224968444E+02 -6.969649533954E+00 2.154671163374E-01 -5.420698077544E+01 1.668452631225E+02 -6.097483311993E+01 1.759952028528E+02 -8.546807367842E+01 7.825336628975E+01 -8.775456953373E+01 6.927293630696E+01 8.382907783933E+01 3.074826419070E+01 1.861358396260E+01 -6.815717007546E+01 1.188148398576E+02 3.132959356250E+02 1.988965877208E+01 3.610959799155E+01 6.304704328310E+01 -9.909411125604E+01 -1.197433438765E+02 -1.274530584958E+02 2.562699428801E+02 -8.712018119766E+00 1.945429538184E+02 -8.651930952158E+01 4.486824281216E+01 3.194236108267E+01 -5.872760837656E+01 1.081043154731E+02 -7.771690690371E+01 5.074397645250E+01 -7.330109671149E+01 3.033371660678E+01 5.226759315837E+01 -2.451569665398E+02 1.750338939606E+03
 -1.754751502608E+02 3.793534199203E+01 5.821970513225E+01 -1.074973760872E+02 2.010978166606E+02 -7.304456031714E+01 -1.644367884520E+01 1.358460253515E+02 5.129408416629E+00 -9.680218767836E+01 1.175838787727E+02 -6.958956628464E+01 -2.452242380859E+02 -1.944296841212E+01 7.897944852273E+01 4.708297660485E+01 -1.648022969930E+02 -5.058285545989E+01 -5.621616743888E+01 1.122844122575E+02 1.181480873428E+00 7.622937269266E+01 -1.833438101382E+01 -1.563397214680E+02 3.637427881501E+01 -7.960008844513E+01 -1.603746522402E+01 2.313682842381E+01 3.862901078028E+01 1.414396850057E+01 -1.533812649023E+02 4.348953819490E+01 1.923941675273E+01 3.844836018854E+02 -6.712181757279E+00 -6.205718091151E+01 1.662921721933E+02 1.051210965430E+02 1.427710979529E+02 1.257562887416E+02 1.505363551895E+03
 4.859466416434E+01 -9.048612626904E+01 1.155058921442E+02 -9.795622159922E+01 1.065345025644E+01 1.155841470948E+02 9.365519674869E+01 -2.714817537956E+01 9.114597449493E+01 2.298717461857E+02 -1.600046007218E+00 1.632831170038E+02 2.099898715710E+02 -2.494290342939E+02 -2.712563357710E+02 -1.931968795442E+02 3.640186576363E+02 -4.151955661699E+01 -1.070822282905E+02 6.753313680677E-01 9.902484694521E+01 -9.114370249328E+01 1.307207942268E+02 1.089795031521E+02 -3.501400603591E+02 -7.435559386981E+01 -2.749114423644E+02 2.896306018547E+01 9.000534146607E+01 1.204200765886E+02 -1.540548018206E+02 4.853075687504E+01 -1.024470702780E+01 8.595644172864E+01 1.556486907910E+01 -1.164627498795E+02 8.399845284056E+01 2.772983236823E+01 1.935277710490E+02 1.177192467665E+02 8.485744126258E+01 1.451607669348E+03
 -4.339615313261E+01 2.097441194802E+02 -4.697212952994E+01 1.378125469657E+02 3.948676839710E+01 2.032597464375E+02 1.330517043641E+02 -1.149181592325E+02 -1.620592709741E+02 -3.707148025220E+01 1.693651719772E+02 6.952295538040E+01 3.654402346567E+01 9.379128913712E+01 2.138201278554E+02 -1.340828466837E+02 -1.402050040691E+01 -2.939549830925E+01 5.032169857951E+01 -5.391251053610E+01 1.166284589648E+02 8.047345291596E+00 -3.508047983185E+00 2.212484246312E+02 -4.133348688394E+01 5.915157867981E+01 -1.767742127901E+02 1.585628153500E+02 -1.803066170504E+01 7.660028213828E+01 -2.811798278801E-01 -5.833742074257E+01 1.988834861989E+01 -4.354318866063E+01 -1.311803738232E+02 1.145664973240E+01 8.490599275417E+01 -1.295869713414E+02 5.485894260481E+01 -8.368742955986E+01 2.588308008650E+01 7.398369666183E+01 1.513472802535E+03
 4.239174532494E+01 3.497138354739E+01 -1.434625446443E+02 3.345682715888E+02 -1.057520969552E+02 -7.575383268569E+01 -8.262959579580E-01 1.985416145690E+02 5.419494393719E+01 -1.365553429709E+02 -1.214250601658E+02 3.756184808865E+01 -6.696942193044E+01 1.673269583132E+01 6.973901192171E+01 -1.008555065450E+02 2.061723683399E+02 2.016056724065E+02 7.428008839254E+01 -1.523968974293E+02 5.637361893331E+01 -7.261807857277E+01 -1.006908837639E+00 -1.811056318371E+02 -9.834744421334E+00 2.729589980670E+01 -2.442390231048E+02 1.873115765917E+01 1.481462299403E+02 9.806364178454E+01 7.599529077033E+01 -4.124743110987E+01 2.095293342571E+02 7.045902970135E+01 -7.715040562800E+01 5.425830743220E+01 -3.049699288093E+02 -1.357758948443E+02 -1.441637692213E+02 1.788550415015E+01 3.485756758188E+01 6.389280987597E+01 -1.380388114002E+02 1.376021087247E+03
 -1.508556122455E+02 -5.928588591915E+01 1.739156160559E+02 1.553144335001E+02 1.530462399315E+02 1.106463344945E+02 -1.222857918140E+02 4.345377452640E+00 -8.530678252443E+01 7.573382180193E+01 1.106690885871E+02 -4.505614442184E+01 -2.307036465847E+01 1.013206294850E+02 2.547748307297E+01 -2.844713820108E+01 1.320154431258E+02 7.333161263092E+01 -1.114685660350E+02 1.027091368257E+02 1.485698455443E+02 9.386151058615E+01 -3.651105220594E+01 -5.309534650005E+01 -6.747589937561E+01 -1.348293057124E+01 -3.522546483743E+01 2.756658224281E+02 -1.283230439648E+02 -1.533301330560E+02 2.639945228294E+01 -5.166890152234E+01 1.021852373621E+02 -6.578068933776E+01 3.406668921637E+01 1.048338313094E+02 6.152501451366E+01 4.331903058795E+01 3.964359034682E+01 -1.614934626785E+02 -4.602347640680E+01 -7.267669940098E+01 -4.742584360513E+01 -1.377687567469E+02 1.727818268260E+03
 1.290155276888E+01 -2.085329240698E+02 1.281697365937E+02 1.397987442760E+02 -2.705623689751E+01 -2.024711954349E+02 -2.223128802671E+02 -4.592493092881E+01 9.117358993203E+01 -1.218388676443E+02 -5.883636255911E+01 -6.369603006459E+01 5.353282097775E+01 1.053571577893E+02 -2.256563234045E+01 1.019592403654E+02 8.274603061233E+01 3.607842823345E+01 7.862485444139E+01 -1.168582696178E+02 7.352783112082E+01 -5.954411860813E+01 1.456087148680E+02 3.918629771404E+01 7.843205101628E+01 -1.390687558713E+02 -5.176979454765E+01 1.660861842262E+02 1.149239537809E+02 -1.093089519225E+02 3.495544660449E+01 -2.157352119346E+01 -7.681503722465E+01 5.312296211498E+01 -4.872000692167E-01 6.728238716130E+01 -1.301345795131E+02 1.846902656685E+02 -7.038876487101E+01 -1.276364777805E+02 1.168914549500E+02 2.760309440293E+01 4.109481745163E+02 -1.154958583875E+02 -2.185415576869E+02 1.529503374489E+03
 7.625507503109E+01 2.854932005086E+01 9.807233916831E+01 1.276712993895E+02 8.346580942679E+01 -7.478022452496E+01 -5.386734116369E+01 2.256564976082E+02 -2.585962585191E+01 -2.170068013637E+01 -1.650401797712E+02 -4.651325575011E+00 3.703625415744E+01 8.259789729308E+01 7.753522167475E+01 -1.112918379872E+02 -1.474642648764E+02 2.370297393616E+00 -4.029937801284E+01 5.930444454633E+01 -1.473132053850E+02 -1.871934397159E+01 1.997815755810E+02 4.700018741075E+02 -3.462076955534E+01 6.495024970964E+01 6.168419986845E+01 1.745051114865E+01 -7.851016462331E+01 -1.279164774793E+02 1.004895785937E+02 3.228438814799E+02 2.348224310489E+02 -4.963695909839E+01 4.566547960045E+01 -3.072952694892E+02 4.815881818374E+01 1.697406988969E+01 -2.345686588832E+02 -1.042179517520E+02 1.006847588659E+02 -1.685110532002E+01 2.761539961067E+02 3.775618279070E+02 4.822428067324E+01 -2.158816469922E+02 1.204357170938E+03
 -2.278480433832E+01 1.357037848171E+02 1.475987123032E+02 9.510481122816E+01 1.416994681841E+02 -2.548110605002E+01 -2.209258814839E+02 -7.050964209735E+01 8.360315085889E+01 2.327353491255E+01 -7.847619332616E+01 1.548248214962E+02 -1.279393368648E+02 1.073844820849E+01 -8.681828303015E+01 9.637357255702E-01 -1.436313601463E+02 -3.350871415706E+01 2.293878239094E+02 3.685448731590E+01 -2.422310120392E+02 2.042290658356E+02 8.727539970828E+01 1.091547751413E+02 8.786067873061E+01 6.493613160941E+01 2.458539492066E+02 -1.144356989478E+02 1.922452499241E+02 -1.950162363474E+02 3.835851327059E+01 -1.096434951845E+02 -9.514538185024E+00 -5.082953962358E+01 1.112191600288E+02 7.842647615985E+01 -3.004202132517E+00 -2.734130995555E+02 8.982682107299E+01 -7.283641829598E+01 1.704681506897E+02 2.019502734325E+02 -2.839055675534E+02 -3.224690048920E+01 5.318871277014E+01 2.414466484170E+02 8.241585637841E+01 1.400996153205E+03
 1.829112074205E+02 2.220914275821E+02 1.555510385454E+02 5.781054945240E+01 9.591508175066E+01 -4.243535526086E+01 3.639046006695E+02 2.491742818795E+02 3.962376630616E+01 7.943980762463E+01 -5.710308310528E+01 -9.012558244608E+00 -1.836360750912E+02 7.114610817281E+01 -1.308708682782E+02 2.120197866573E+02 -1.103740849822E+02 -2.518655458930E+02 1.307531643792E+01 2.133083303117E+00 1.426343681719E+02 1.007289720745E+02 -1.458976386371E+02 5.942332664407E+00 -2.174793193020E+02 -1.186329296374E+02 1.618669898528E+00 -7.408680520883E+00 9.463162767289E+01 -2.463723665590E+01 1.387479614347E+02 8.895401654809E+01 -1.026689025563E+02 2.172429812418E+02 -9.920677078073E+01 -3.870695280103E+00 -7.795668955478E+01 -1.634560041535E+01 1.647052829365E+01 -6.421256237843E+01 -2.405250545656E+02 5.610833125936E+01 -4.467909092591E+01 1.548232497459E+02 1.323131968808E+02 1.014321786336E+02 -8.867502521909E+01 -5.626492417011E+01 1.510870504712E+03
 7.405555123069E+01 9.229497257525E+01 -5.643382840381E+01 -5.951788426789E+01 -2.271664798367E+02 3.002927234597E+01 6.311288483578E+01 -9.687744614729E+01 -1.318288715254E+01 3.200703073273E+01 -8.400241031430E+01 1.972345291066E+02 2.544823042470E+02 1.258819852881E+02 -8.559664226258E+01 1.689686763693E+02 1.805320959439E+01 4.119932276699E+01 -7.106331557253E+01 5.574551098371E+01 1.851951984676E+02 1.654396357865E+02 3.750036086857E+00 6.699699025773E+00 -1.541585239199E+02 1.156817140930E+02 9.943867466155E+01 1.113278990612E+02 2.290451327510E+02 4.437745167977E+00 -1.847966717686E+02 -1.717286482685E+01 -1.195246771247E+02 -2.641224352713E+02 8.070862449916E+01 1.834981159726E+01 1.572776246229E+02 -1.059072286339E+02 -3.263619502891E+01 -1.860629411170E+02 4.404256795195E+02 -1.440286478570E+02 -1.375449415103E+02 2.732531867559E+02 9.189339870496E+01 7.970847386936E+01 -1.268018172728E+02 -2.563591628391E+02 -8.434813572497E+01 1.277962831064E+03
 8.680659250335E+01 -4.616608286065E+01 3.811558017748E+01 1.081437829584E+02 7.655341924517E+01 5.875101472913E+01 -9.181495020831E+01 -3.285177413541E+01 2.095400345952E+02 -4.958645938387E+01 -6.231315968818E+01 -1.882103916849E+01 2.727690024654E+01 -6.833416163403E+01 2.454196889829E+02 1.222949135284E+02 1.924846267974E+02 1.919960135863E+02 6.568508441269E+01 -1.370058809515E+02 -1.372462213267E+02 5.113599770145E+01 1.427884779890E+02 1.100400911422E+02 2.554533820305E+02 7.865579195888E+01 -1.433880753698E+02 6.824996278248E+01 5.529076481223E+01 2.497553668906E+02 -1.474819778118E+02 5.180488255639E+01 -9.964264784345E+01 9.676154157970E+01 -5.479041864473E+01 -3.073655471480E+02 -2.141387492605E+01 -1.261558608121E+02 -8.584937661136E+00 1.077617994421E+02 -1.352589111741E+02 9.610921381414E+01 -1.591328440191E+02 -1.916816319968E+01 3.250961458089E+02 1.288977851178E+02 -5.057579151065E+01 -3.004307425485E+01 -1.278494971115E+02 -2.214539731423E+00 1.361220774686E+03
 1.063580202565E+02 -6.982860935841E+01 1.596620167642E+02 2.062098045236E+02 1.892777545077E+02 -5.344129378096E+00 9.728951967195E+01 8.673130727316E+01 -1.390618863233E+02 8.642642263951E+01 1.315754360567E+02 2.908960628543E+01 4.100342186424E+02 1.104556941200E+02 -1.835053482327E+02 1.407194601306E+02 9.490371529570E+01 1.915344631499E+02 -5.635748932733E+01 -1.704998344052E+02 1.043039184894E+02 -9.515084434763E+01 -1.434428262504E+02 -1.322208765184E+02 4.353281315104E+02 -1.589035256101E+02 1.182503301474E+02 -2.840090713669E+00 -1.345597408018E+02 -6.348449247961E+01 -1.397736484164E+02 1.749971325037E+01 -1.514230702995E+02 -1.477480065733E+01 7.480429799192E+01 1.416603408587E+02 -2.818469900867E+01 -1.041044050922E+02 -3.099838688901E+01 1.040235547493E+02 9.678751873722E+01 7.189763446205E+01 1.309015526181E+02 5.479327739146E+01 6.511322518899E+01 -1.289664080259E+02 6.028128649679E+01 3.250178510718E+01 -1.108287376840E+02 -1.288958451297E+02 -3.682044813328E+02 1.243410309525E+03
 -1.025579382908E+02 8.496723831501E+01 3.924826116059E+01 5.977165644890E+01 2.831045495281E+02 1.038224691599E+02 -4.493782769461E+01 1.280632121030E+02 -6.788758144835E+01 6.539498880268E+01 1.029620053067E+02 6.005915802488E+01 3.565998638439E+01 9.149476577800E+01 9.806376327893E+01 1.159245198300E+02 5.409255079072E+01 1.557664179580E+02 -1.300136662640E+02 3.389701259729E+01 2.307751364421E+01 -4.092024902017E+01 -5.730348059526E+00 1.264055496819E+02 -1.025244912907E+02 2.972042247223E+01 9.456704593324E+01 6.180526995942E+01 1.580851716520E+01 -4.230475695543E+01 -2.456305875487E+02 6.529772110820E+01 8.587309145241E+01 2.394027751668E+02 -2.420043455937E+01 -6.284448815852E+01 1.946112349572E+02 -2.760520391318E+01 1.896542174744E+01 3.801190239810E+01 -3.320632760415E+02 -6.297531535374E+01 -2.017013046463E+02 1.125745067440E+02 -1.284690107128E+02 1.925710950523E+02 -7.335970327307E+01 1.789210356950E+01 -6.873733651592E+01 6.533466778485E+01 -1.385245542010E+02 -2.260997138354E+01 1.757074700242E+03
 -1.546646096813E+02 5.679969064014E+01 -3.934311382663E+01 2.722658696085E+02 2.095169715775E+02 1.644317301672E+02 4.542569317266E+01 -1.472955887208E+01 -8.615948962012E-01 -6.416256254977E+01 -1.395679957914E+02 1.499336453148E+02 -1.866415852046E+01 1.649378210528E+02 5.912242210608E+01 5.425681367112E+01 7.293578527509E+01 3.194076142168E+02 -1.929663416378E+02 -4.229986363612E+01 3.153801967956E+01 -2.672228885432E+01 -5.288195596717E+01 2.365304656528E+02 -1.378492687039E+02 -1.031782456038E+02 1.045382308684E+02 -8.663042718452E+01 1.894126602521E+01 -1.739920491002E+02 8.636305109746E+01 -9.476426785372E+01 -4.124740385175E+00 -4.801959194772E+01 -3.201066175299E+01 1.121914659103E+02 1.410479110053E+02 1.470635108446E+02 -1.919079675442E+02 3.269133138084E+01 1.176810210497E+02 6.531571675080E+01 -1.860601412435E+02 -1.404740668431E+02 -2.191197504753E+02 6.875137570081E+01 -9.878569913634E+00 -7.473725214133E+01 2.363924193681E+02 1.147778414441E+02 2.003372911053E+02 8.416267094729E+01 -2.092178235734E+02 1.512879539218E+03