#BIOSYM hessian 1
@Type: Hessian Update
@Units
 distance: 	A
 energy: 	Kcal/Mol
#header
@natom 19

#label
L1      L2      L3      L4      L5      L6      L7      L8      L9      L10     L11     L12     L13     L14     L15     L16     L17     L18     L19

#element
Li Li Li Li Li Li Li Li Li Li Li Li Li Li Li Li Li Li Li

#matrix
57
 2.497787976311E+01
 -3.153382080543E-01 1.398666822089E+01
 -1.889731725391E+00 -6.705603060454E-01 6.814923725845E+00
 -6.639283266838E-01 1.010045700975E+00 -5.398330099998E-01 3.891339917724E+00
 1.016610923736E+00 -3.356554478229E-01 -1.029012909542E-01 -3.404104687356E+00 6.473285727968E+00
 -1.342470382527E+00 9.836536582191E-02 5.414388386506E-01 -6.104175192516E-01 2.521492738501E-01 4.395164914189E+00
 -4.038544716069E-01 -9.288069472756E-01 -1.508468601018E+00 -1.518370853494E-01 9.364310561094E-02 -1.653184218605E-01 1.543881156975E+01
 3.531088680185E+00 -1.371440804940E+00 8.027124935017E-02 -4.254151123794E-01 -1.057746304991E+00 -4.734086863578E-01 -2.407112436575E+00 2.117806729439E+01
 2.466950022654E+00 4.596774401977E-02 -2.115116825329E-01 -1.676739187073E+00 -4.232763495331E-01 -2.085247591979E+00 3.283747657095E+00 3.347691793855E+00 1.495617633810E+01
 -1.978949262085E+00 2.202183329445E-01 -1.752693013881E-01 -1.838133242914E-01 -4.989292117291E-02 1.046546824913E-01 -5.316014321783E-01 -3.207244203918E-01 -1.076785359650E+00 2.773007813227E+00
 1.224001733439E-02 -4.114116297679E-01 3.161727338695E-01 -1.034905821081E-01 -5.192492962657E-01 2.936351004463E-01 -6.165459153959E-02 6.843632219235E-01 2.924004913604E-01 1.355602921519E+00 1.989358776160E+00
 -2.001011599793E-01 -2.916264689973E-01 9.282526040167E-01 -1.060326052585E+00 2.108582290510E-01 -4.316963949087E-01 9.849123762017E-02 2.228347118142E+00 8.068503517138E-01 2.189657204397E+00 1.896657172177E+00 4.586802953219E+00
 -9.059451642808E-01 -4.541350211942E-02 2.057956979612E-02 5.438722525180E-01 -4.090419479152E-01 1.000827244206E+00 -1.247969312004E+00 2.036751046298E+00 3.661745637480E-02 1.173195105564E+00 5.617657725694E-01 1.023368914164E+00 3.873771467861E+00
 -1.376518557294E+00 4.181628379216E-01 3.744040284219E-01 -7.112602321415E-01 1.618593095010E+00 -1.179937203376E+00 -8.294311116960E-01 -7.180646738895E+00 2.136995062089E-01 4.829305977931E-01 -5.513440589358E-01 -4.846621458932E-02 1.057969790599E-01 9.627881685937E+00
 -2.436346843650E+00 -6.992532681135E-02 1.309541564028E+00 2.324207956643E-01 -2.169818487274E+00 3.283254189160E+00 3.524637423233E-01 3.586359291975E+00 6.723540315645E-01 -7.620896773273E-01 7.198156359834E-01 -7.777563539601E-02 -1.357309256601E+00 -9.582384603634E+00 1.500181106004E+01
 -1.818952409619E+00 -6.770194295988E-01 8.920273442193E-02 7.587642882928E-01 -8.830373301130E-01 -1.305315410757E+00 -3.196445551933E-01 1.243092991557E+00 -3.389810311911E-01 1.366813277604E+00 9.188187844828E-01 1.032631214013E+00 -1.557062107393E-01 -2.816275384214E-01 6.847218995081E-01 5.283699296329E+00
 1.392846370205E+00 -2.928371393899E+00 -3.993532731722E-01 -3.516231825199E-01 5.253151228424E-01 -1.180419283450E+00 -1.518142835555E+00 -2.274801784993E-01 -6.023556524059E-01 1.710763496163E+00 8.672514780886E-01 1.164264983906E+00 8.605122741795E-02 4.124546323490E-01 -4.760225694727E-01 4.441928785772E+00 6.008881767279E+00
 -5.947150691975E-01 -1.011467322839E+00 -8.539479000542E-01 2.146944178919E-01 -5.032389055288E-01 -7.221566394573E-01 -1.356127713512E+00 1.773121645192E+00 -4.551039625850E-01 1.103413771658E+00 -1.672529421089E-01 -3.732236381740E-01 -1.073483201022E-01 1.910063326868E-01 6.553627960093E-01 5.826137256068E+00 5.511951014146E+00 1.820211861289E+01
 -6.766467285268E-02 -1.698470594750E-01 3.319786753381E-01 9.647945651948E-01 5.453894978226E-01 -4.746931266212E-01 -6.144959380797E-02 3.337708959152E-01 -3.866630493381E-01 2.371271424108E-01 4.943444649093E-01 -6.234129767973E-01 2.119720112350E-01 -4.018192406844E-01 -2.077759468915E-01 1.025093147874E+00 3.938808791495E-01 6.948748487063E-01 4.013894720720E+00
 -7.516213861401E-01 6.682477905251E-01 -4.061386016146E-01 -1.017292944782E-01 -4.180060333530E-01 1.241299631851E-01 -8.718400423085E-01 6.504138660562E-01 -1.468354280629E+00 1.152568633204E+00 2.330698513957E-01 6.499443930196E-01 5.499978606414E-01 -4.980813784594E-01 -3.752070553401E-01 4.954988010300E-02 3.400255094755E-01 3.046845843020E-01 -9.232256397307E-01 1.772594098288E+00
 -1.541081764650E+00 6.535670474146E-01 -2.773145430722E-01 -1.381439415355E+00 -9.948572126196E-01 7.312212403782E-01 -4.082731705799E-01 1.846945824232E-01 -4.715163423957E-01 8.587034989956E-01 -2.128596428964E-01 1.631194798477E+00 1.931294672262E-01 -2.131546797399E-01 3.218438918605E-01 -1.799778807233E+00 -8.340099087089E-01 -2.267151502239E+00 -5.655190839992E+00 2.457820851846E+00 9.539272819918E+00
 6.535952612740E-01 -2.311948212755E-01 -8.271380252047E-02 -4.131687900849E-01 6.045039503262E-03 2.059128921459E-01 -5.733180724568E-01 -7.634268000130E-01 -2.811736504637E-01 -1.169526111273E-01 -3.723664141916E-01 -3.217030343689E-01 -5.411125578751E-01 -3.135896220037E-01 5.984619763863E-01 -1.702905454107E-01 4.067189333236E-01 -3.052164566710E-01 -4.697330711873E-01 2.254524221094E-01 8.062042126285E-01 9.170552793935E-01
 5.461390182270E-01 -2.626393443503E-01 -4.863913372475E-02 4.932740635554E-01 2.311503017768E-01 2.019589415840E-01 -4.617170845690E-03 -9.208325642922E-01 4.480011645365E-01 -8.058513274521E-01 -3.182256256703E-01 -8.915890767443E-01 4.015410487074E-01 3.674666475756E-01 -3.581739341268E-01 -5.251202845317E-01 -6.163456987831E-01 1.249427509924E-01 6.124385018168E-01 -7.006229913447E-01 -1.601099244961E+00 -3.895288409206E-01 1.160904627158E+00
 4.400214478430E-01 1.872541303248E-01 -2.070949623456E-02 -3.253099965167E-01 4.072118710595E-01 1.951821582581E-01 3.993867984106E-01 -1.297967224384E-01 -4.935617433500E-02 4.685696861231E-02 1.581678834913E-02 3.087909154783E-01 -2.863504957266E-01 1.515424173413E-01 1.944515518530E-01 -3.292718060024E-01 -3.267426554316E-01 -5.637019491089E-01 -5.330097618938E-01 6.699146567625E-02 7.151244657491E-01 -1.084423715526E-01 -1.113980678815E-01 4.715713803557E-01
 -6.114629359254E+00 -1.547494602808E+00 -9.442821474701E-01 1.259694138439E+00 -3.105115841709E-01 3.167491528885E-01 -4.878281759968E+00 2.495030658047E+00 -3.305621302050E+00 -3.028270505618E-01 -1.127519181219E+00 -3.518763703469E-01 -1.875560180232E-01 1.088796548778E+00 4.792323589875E-01 8.114612546868E-01 4.029973117311E-01 4.527954968018E-01 3.683934107289E-01 -2.996537133451E-02 -6.294047244789E-01 3.863189054827E-01 -3.467766156368E-01 -4.009300592008E-01 1.295590995499E+01
 -4.977986578499E+00 -2.672491148043E+00 -1.936419114215E+00 -8.118562381244E-01 9.777942973883E-01 -3.700639723589E+00 2.548980450407E+00 -1.093088630785E+00 3.628700273513E+00 7.431426643202E-01 -1.856833815691E+00 5.470325798067E-01 -1.371897468780E+00 8.530020341513E-01 -2.873176924474E+00 -5.189825701624E-01 -8.469010633345E-02 -6.893805948831E-01 -1.849115019535E+00 1.239913298096E+00 3.635309067346E+00 1.065041027593E+00 -4.237990729381E-01 5.668815733571E-01 -4.389120975254E-01 2.080659936631E+01
 -3.484859215246E+00 1.105873065645E+00 -9.584225362246E-01 2.910185197949E-01 -8.163918489265E-01 -3.533913465750E-01 -3.420249877991E+00 2.214397538200E+00 -2.617306390683E+00 2.693823808400E-01 -8.600591707915E-01 4.391896603580E-01 -7.735128972572E-01 9.624562958565E-01 -1.566688321076E+00 8.802124533760E-01 -5.375427244728E-01 2.594475754249E-01 -8.836682468094E-01 8.788061101559E-01 1.434180173889E+00 4.924899614073E-01 -6.668252253959E-01 3.858016049185E-02 2.103642996820E+00 2.951817182210E+00 1.495021169457E+01
 -8.982432645211E-01 1.663660179426E-01 6.656854240698E-01 -1.977601129755E-02 3.644913063586E-01 -6.476686115529E-01 -4.382297114538E+00 -4.525353762364E+00 -1.829599287924E+00 -5.023291213061E-01 -4.679864128166E-02 -1.070983816512E-01 -1.010598992897E-01 -2.531298105729E-01 5.628642982612E-01 -2.543596274051E-01 3.891692107632E-01 -7.465220348914E-01 -2.059722668553E-01 -2.252911824106E-01 7.359532771370E-02 7.044575540618E-02 4.957269058623E-01 -9.526144631354E-02 -9.826248739102E-01 -7.586694686784E-01 9.679312132277E-01 7.722779047880E+00
 -3.779634200100E-01 -2.904246827653E-02 -1.660624166770E-01 1.686242894072E-01 -4.956221924100E-01 2.966080551812E-01 -1.327940902028E+00 -2.126516540226E+00 -7.887501074781E-01 -5.759837977787E-01 4.126636764504E-01 -1.016263650676E-01 2.474155546977E-01 -1.499066739923E-01 3.090896402606E-02 1.557621267996E-02 -4.548817626008E-02 -1.139799095120E-01 1.341499670639E-01 -4.745865082450E-01 -6.765632984344E-01 -4.983949629540E-01 4.786999976118E-01 -1.674240753417E-01 -1.612250547473E+00 -4.298503124456E+00 1.781153069989E+00 5.202216876529E+00 6.164025537111E+00
 -1.359782168860E-01 1.524288701266E+00 -3.866551458947E-01 -2.637498963892E-01 2.266835960870E+00 -1.838248133851E+00 9.582622811166E-01 5.571587768159E-01 -1.716457726010E+00 -2.855901051322E-01 -1.370968861297E+00 4.009215901370E-01 4.303340047613E-01 -2.350429307833E-01 -2.010803499667E+00 -5.661587775473E-01 -5.587285196391E-01 5.035512108924E-01 -4.195452876290E-01 4.350065044307E-01 7.462629534707E-01 -4.138633543676E-01 1.081625301365E-01 3.823240405070E-01 -1.394995746291E-01 4.125236851964E+00 -4.660854347103E-01 1.847417784009E+00 3.267785788103E-01 6.038663940507E+00
 -2.316709823547E+00 2.826277490702E+00 1.940977104134E-01 6.247509678658E-02 -1.396458060613E+00 1.740389436287E+00 -5.157412308947E-02 -1.673996558965E+00 2.922743516916E-01 9.475924492977E-01 3.052834441228E-02 -1.495727643003E+00 -6.996856485169E-01 -3.874964274447E-01 2.085086868649E+00 1.879880202413E-01 3.488186652280E-01 2.311963897683E+00 -1.022348017442E+00 1.446811125862E+00 2.659494251617E+00 1.020005391921E+00 -9.530021707712E-01 -3.641040774870E-01 -1.357304508277E-02 -3.023108412873E-01 -1.787620877815E+00 -3.756285413350E+00 -3.558958305862E+00 -3.323663702839E+00 9.145632130388E+00
 2.631732662266E+00 -9.180384145089E+00 9.239786100990E-01 -3.621526945069E-01 1.043812643055E+00 -1.463448105049E-01 8.480270894644E-01 -1.008674626962E+00 3.587523378960E-01 5.525959328574E-02 1.051611448257E+00 4.426618724234E-02 5.189683409292E-01 -2.524315339889E-01 -9.885289173028E-01 -7.949102747626E-01 1.324012244698E+00 1.825531522510E+00 -3.909790045478E-01 3.818075751835E-01 5.958332333637E-01 -2.885078231939E-01 1.109169911362E+00 -4.587913875997E-01 -1.571534235002E+00 2.144769795047E-01 -1.832169479304E+00 -2.506954678747E+00 -2.374468791667E+00 -2.798568395323E+00 2.637974944558E+00 2.059765827491E+01
 9.804545384013E-01 1.289744716340E+00 -2.857815134816E+00 -2.528746919988E-01 1.632902569234E+00 -8.166470402288E-01 1.439383048922E+00 1.702117941399E-01 1.297366585766E+00 -6.271577991144E-01 5.158992339746E-01 -1.427449451110E-01 -5.129162484303E-01 -4.603207496347E-01 6.164519008313E-01 -1.647262857979E-01 -4.209552592933E-01 -9.994648593824E+00 3.709557856621E-01 -1.146897101146E+00 -9.003989705021E-01 -1.432823405256E-01 -1.330139774554E-01 3.326693794580E-01 3.834360369821E-01 -1.482696307692E+00 -1.291666391268E+00 -1.435486014093E+00 -1.507289649266E+00 -1.280371246112E+00 -1.499667337696E+00 -1.782374931696E+00 1.517469465825E+01
 -1.245535947214E+01 1.249827019422E+00 1.624655046927E+00 -4.749681235192E-02 6.242106232815E-02 2.302047763314E+00 -9.234643369039E-01 4.232862859456E-01 -2.057308542404E+00 7.954397132287E-01 5.374648394713E-01 9.386643580719E-01 1.471411989627E+00 5.554282229865E-01 1.060978091522E+00 -4.523970394286E-01 -2.429800775339E+00 -4.153412411550E+00 9.240666354659E-01 3.547780936306E-02 -2.857494788556E-01 -5.760606338968E-01 -2.606617354817E-01 -2.364749945173E-01 5.180295593998E+00 -1.809734178780E+00 3.001741537830E+00 1.236270989510E+00 2.201015955598E+00 -2.399800425168E-01 -1.166558250617E+00 -4.657588270595E+00 6.962509114633E-01 1.098246440511E+01
 4.615749822886E+00 5.601265232873E-01 -1.431865049335E+00 -8.920968642930E-02 8.694473894049E-01 1.932861080154E-04 1.649679283956E+00 1.470400338110E+00 1.593904196913E+00 -1.889592321570E+00 -1.283007302564E-01 -1.453576878829E+00 -6.900588815990E-01 -4.457723312045E-01 -1.000320904385E+00 -4.429992046824E+00 -4.810299739350E+00 -7.490712816149E+00 3.378534491880E+00 -1.798495158550E+00 -4.868338889044E+00 -7.886319986071E-02 8.024504454925E-01 -3.602451604650E-01 8.236593260471E-01 -3.268297701057E+00 -2.944786797944E+00 -1.137857458066E+00 -1.158655125154E-01 -8.798319908969E-01 -2.330645751107E+00 -2.265289343629E+00 4.063598786823E+00 1.050872574208E+00 1.426252656632E+01
 2.378725488652E+00 -1.080661040248E+00 1.753564559613E+00 2.322569444298E+00 -3.939375200446E+00 2.117305969388E+00 2.637426754853E+00 3.753223340500E-02 2.359748440889E+00 -1.351297869903E+00 3.131014142732E-01 1.413340931141E-01 1.969909317201E+00 -7.062478502926E-01 1.985999670269E+00 -3.362124942354E+00 -4.169099003906E+00 -3.425992990476E+00 -5.961746987710E-01 -9.036775652047E-01 2.401901142625E-01 -5.821453720537E-01 1.252978100773E+00 -2.974848264317E-02 1.216620736351E-01 -4.148160562999E+00 -2.042219859094E+00 -1.586582442638E+00 -8.947866478972E-02 -2.320280377936E+00 -3.022112636576E-01 3.899053471289E+00 -2.019069645031E+00 3.692363015578E-01 2.961009026895E+00 1.159387830954E+01
 3.844010341179E+00 -1.487743846732E+00 -1.762292752631E-01 -1.313612951389E-01 -4.164714296209E-01 -4.767153159588E-01 1.905082071099E-01 -8.433145077020E-01 8.733969309592E-01 -3.189823366121E+00 -2.251377768883E+00 -2.081037439887E+00 -9.422626632660E-01 1.157890780798E+00 -9.272908818748E-01 -1.491458811840E+00 -8.434182461891E-01 -6.370052417356E-01 -4.214045129560E+00 -7.137750839447E-01 4.004341125771E+00 3.016378134899E-01 7.411393834437E-01 4.274484948051E-01 -5.464972462821E-01 9.242947337309E-01 4.345138876864E-01 6.082991180585E-01 -4.543593720286E-02 1.026051950043E+00 -7.386737160509E-01 2.884885866495E+00 1.366329285134E+00 -3.911391076784E+00 -3.012600211529E+00 1.945960178391E+00 9.900696338451E+00
 2.578363375006E+00 -2.649850798542E+00 1.455234106639E-01 6.611270621518E-01 -1.795329666454E+00 5.342521479764E-01 -8.426838924647E-01 -9.645286530097E-01 -2.510321246534E+00 -2.447890929540E+00 -3.594671296283E+00 -3.931139996341E+00 -6.348213703531E-01 1.528200442238E+00 -1.306819560460E+00 8.420036593724E-01 2.229608677512E+00 1.214350944355E-01 -4.286361715489E+00 2.117771175771E-01 4.766362529147E+00 1.735097766032E+00 -5.301666253669E-01 1.587715896304E-01 1.539335662376E+00 1.602840321792E+00 2.725649957099E+00 4.960849632317E-02 -4.554182575231E-01 4.297314129212E-01 8.784777787196E-01 -3.838379983637E+00 8.373855483388E-01 -2.819359210047E+00 -5.918842641005E+00 -1.465220927460E+00 9.208653223059E+00 2.016779115690E+01
 -5.933129235035E-01 8.749719974698E-01 -2.060561349578E-02 1.586360980354E+00 -1.492990845862E-01 6.354389835123E-01 -6.357033697424E-01 -1.249865021641E+00 -1.353299736951E+00 -1.411228037622E+00 -1.918726613883E+00 -4.416840725453E+00 -2.858625574688E-01 -4.743260374048E-01 1.025901261801E-01 -2.796655656429E-01 -7.841210877778E-01 1.201384939303E+00 3.357827573482E+00 -6.670889230770E-01 -4.897473864003E+00 4.926000132700E-01 8.026385943045E-01 -8.137431768610E-01 1.395598016435E+00 -1.345012396008E+00 4.614834045093E-01 -6.191967796108E-02 1.735441625979E-01 -4.018033269890E-01 1.169205193006E+00 -2.833167453084E+00 -1.762104072781E+00 8.969742397833E-01 3.326784674375E+00 -5.540937254348E-01 -2.282277571525E+00 2.275084627774E+00 8.067634582921E+00
 4.461658273509E-01 6.674802781258E-01 -5.477265537056E-01 -4.196007744984E-01 1.204175819182E-01 1.140717614811E+00 1.145849572248E+00 -6.484272929576E-01 7.718266421395E-01 -3.251357430625E-02 4.968303819668E-01 1.059967314300E+00 7.086540593982E-01 3.491290067983E-01 8.846113338279E-02 -3.707554052164E+00 -3.433004837201E+00 -2.913964003664E+00 -9.014404132109E-01 9.788635542076E-02 1.613049574671E+00 -7.764933803631E-01 5.030424989340E-01 5.844751008165E-01 -1.023158000406E+00 -4.745932213689E-01 -1.367021352597E+00 2.782025137696E-01 8.171669892893E-01 5.280644023704E-01 -1.699486100628E+00 4.988058027357E-01 -1.074910542759E+00 9.545910418529E-01 2.990711789558E+00 3.849808836210E+00 -4.272018570295E-01 -4.558634462325E+00 -1.890836255543E+00 5.870721308776E+00
 -3.637674411823E+00 2.384355741115E+00 1.740013975612E-01 -1.174275629566E+00 -1.565249950888E-02 5.064743589954E+00 1.489873793538E+00 -9.196625271282E-01 1.598177673806E+00 1.171674094474E+00 2.083482464857E+00 8.466651231315E-01 -9.568186981987E-02 -1.224940846889E+00 6.573725279479E+00 -1.078661144388E+00 -2.150470166562E+00 1.512314006232E+00 1.973276988828E+00 -6.774831066296E-01 -2.682490312969E+00 -5.330249175877E-01 9.219983047048E-02 5.379640067302E-01 2.947360229243E-01 -6.545087718705E+00 -2.573429124663E+00 -1.559317348008E+00 1.012648849049E+00 -3.936894329093E+00 2.353342563725E+00 -3.799635012391E+00 -2.285392815843E+00 4.609945034635E+00 3.105124093186E+00 2.946187061700E+00 -6.810442615042E+00 -8.533787738777E+00 1.269996705187E+00 4.190596282647E+00 1.699242663948E+01
 3.209019527181E+00 -5.310027077103E-01 -1.895709679656E-01 1.152671060018E+00 1.530815311420E+00 -1.998635595632E+00 -6.215891907241E-01 -1.440586125029E+00 1.470863152764E+00 -8.412648423247E-01 -1.551632620440E-01 -1.730149014190E+00 -4.179778490882E-01 2.020032554242E+00 -2.832940442592E+00 7.895377638905E-01 1.078313073084E+00 1.056599481037E+00 4.131550996205E+00 -1.951009089465E+00 -7.174956604917E+00 -8.225236129716E-01 1.437674376364E+00 -4.461701410131E-01 2.113206122393E-01 -1.554861227890E+00 -1.865476709282E+00 1.381823110853E-01 -4.690980249355E-02 5.892429202359E-02 -2.010014915923E+00 1.322884042699E+00 1.595652631854E+00 -1.772838969647E+00 3.402124442326E+00 -8.277726699009E-01 -1.641168306206E+00 -3.266247759403E+00 3.184453232981E+00 -1.028593616440E+00 -4.119061637474E-01 7.743465102061E+00
 -3.145100500711E+00 1.524798470823E+00 1.935657734692E+00 -1.341048135890E+00 7.675293877328E-01 2.158436363840E-01 -4.994109856291E+00 3.173158895366E+00 -1.252991955348E-01 -1.551735186923E+00 3.039547190357E-01 -8.410666558275E-01 -3.404386869201E+00 -1.314937027174E+00 3.552862752291E+00 1.367820878078E+00 2.778030975300E-01 1.906075378701E+00 1.427797643806E-01 -1.217962826148E+00 -1.535335114436E+00 4.135574679664E-01 5.520055002390E-01 9.197921525311E-02 4.501667500391E-01 2.924297565707E+00 -4.601097181604E-01 3.536175365235E-01 -1.087985088937E+00 -1.747521398227E+00 1.393161938013E+00 -2.208125292707E+00 1.260193218257E+00 4.453464506563E-01 3.217627213437E-01 -5.025004333617E+00 6.318994093140E-01 -1.909737179951E+00 -1.109186963788E+00 -1.760034027740E+00 1.689910116553E+00 3.896834025331E-01 2.068059522930E+01
 1.535066257719E-01 -2.413297833545E-01 -5.733165896174E-01 -6.167959502430E-01 5.110144235754E-01 -3.657472833724E-01 4.440783140961E+00 -4.700666897448E+00 -1.758602012879E+00 -1.648487546678E-01 -5.232978083337E-01 1.801463344863E-01 -2.379031646847E+00 -9.359791637555E-01 2.151257533584E+00 1.352200545497E-01 4.087087160752E-01 9.805007622591E-02 -7.457827854041E-02 -3.274015485877E-01 -5.753157624056E-02 9.873967069054E-01 -6.484753852392E-01 -1.715505633028E-01 3.399622225768E-01 4.988659208437E-01 5.699915939545E-01 3.758443383047E-01 -1.609266924819E-01 4.684958378390E-01 3.637087418863E-01 1.101593652933E-01 1.057482096368E-01 -8.256787633105E-01 8.884440868419E-01 -1.758509187970E-01 -1.264972362242E-01 -2.134865746821E-01 9.042711896397E-02 -7.277716667234E-01 -3.079527312491E-01 -6.938879676646E-01 -2.324332653399E+00 6.452114200048E+00
 -9.617458713938E-01 -1.593178292418E+00 -7.295339574326E-01 -5.787321335488E-01 6.642944181319E-02 9.771189883032E-01 1.461918252053E+00 -2.323745679798E+00 -1.843501291858E+00 9.185800391102E-01 1.580494374473E-01 9.303868777362E-01 3.228864155305E+00 1.554515628501E+00 -3.370924844068E+00 -1.561532483640E-01 1.041540975965E+00 7.684738114311E-02 1.635466141711E-01 -3.327915878673E-01 -5.958978400419E-01 6.990162286506E-01 5.496516233975E-01 -1.135413728444E+00 -2.772609720671E-01 -2.710565041549E-01 -1.203748249558E+00 3.000524303661E-01 2.989559564068E-01 -8.217119609052E-02 -8.341385075127E-01 8.141606664719E-01 -2.381581072244E-01 1.124226712120E+00 1.666664695298E+00 1.516891686843E+00 -1.617344875834E-01 3.254343331942E-01 -3.538627503562E-01 -8.137373824242E-01 -2.387829549244E+00 -9.693650559852E-01 -5.223290211188E-01 2.270589555751E+00 1.263679036148E+01
 2.315891721195E+00 -7.584665463264E-01 -1.694924029814E+00 5.416385655082E-01 -7.668757975484E-01 -8.027485430174E-01 2.177478813327E+00 -5.423857531887E-01 1.926096277664E+00 1.152745186982E-01 -3.983485518808E-01 -4.365416004052E-01 1.234681522168E+00 2.778901101835E-01 -2.157797541775E+00 -1.202540957156E+00 -7.797462069014E-01 -3.641891894548E-01 -8.272755443084E-01 8.817491246572E-01 1.921984899418E+00 -2.729494388556E-01 -1.945070460374E-01 -1.798993367975E-01 -1.236177929976E+00 -9.236347710881E-01 8.796205863399E-01 -6.573603898690E-01 6.284921917915E-01 3.562587664475E-01 6.722068137327E-01 4.000782310868E+00 -9.158683650878E-01 -1.790575453564E+00 -5.689005171068E-01 2.544593290741E+00 1.243297137486E+00 8.185695639472E-01 2.719891527798E-01 8.018260073103E-01 -2.332791450650E+00 -6.054348871550E-01 -1.012171605828E+01 4.860835313927E-01 -1.125588993687E+00 7.225097292806E+00
 -1.711467385947E+00 4.764723544134E-01 1.211430307552E+00 5.522864777956E-01 -8.915001379273E-01 7.037988463242E-01 -3.136254900947E+00 -4.256731489463E+00 -4.935133799573E+00 3.919622313020E-01 2.729357925529E-01 -5.079605458735E-01 -9.684279176190E-01 -2.033493169508E+00 3.242167360253E+00 -5.283239756091E-01 -3.420038049603E-01 -3.249585793241E+00 -1.063100309200E-01 4.909952580241E-01 1.100601855041E+00 9.194301891867E-01 -5.078761087236E-01 2.262226151188E-02 -9.071097624078E-01 8.904993003233E-01 -3.504142335052E-01 3.450547186711E+00 7.145894095533E-01 -9.291862933813E-02 5.720409816225E-01 -1.837156346728E+00 1.304716675445E+00 5.731354969367E-01 8.098143470136E-03 -1.279689621284E+00 -6.946148259756E-01 6.837718553803E-01 3.246332836814E-01 -7.081315500121E-01 -6.485226558677E-01 -1.570893622941E+00 3.042996525720E+00 1.370768468903E+00 4.703697033244E-01 -2.366682675920E+00 6.817226664264E+00
 1.647748413147E+00 4.789998712878E-01 -7.337801557554E-01 8.010610408778E-01 6.120115339397E-01 -4.220247435644E+00 -2.144223350339E+00 -7.637967572965E+00 -3.547360832364E+00 -2.239632708140E-02 -7.857313622419E-01 -1.390477079123E+00 -1.552546375396E+00 5.686350631649E+00 -1.022717769008E+01 3.451331730886E-01 1.479587060513E+00 -1.141795171973E+00 1.787344034427E-01 6.247693893305E-01 1.304893628412E-01 4.865421654369E-01 -6.287804529418E-02 -6.312106907822E-01 -1.663179377309E+00 3.593340012074E+00 2.205204448815E+00 3.951798623891E+00 2.223546800366E+00 1.738556031521E+00 -9.206670472716E-01 1.308832075141E+00 -6.622556322341E-01 -2.166758679811E+00 -4.253903038408E-01 -4.774804716178E+00 1.332557817305E+00 2.149584152067E+00 8.168095822574E-01 -2.556518988722E+00 -9.437054423295E+00 2.053054170995E+00 2.357696480453E-02 9.381222205039E-01 2.150235409544E+00 1.143651904438E+00 2.014511423425E+00 1.473168205601E+01
 -3.068980893427E+00 -8.459459175931E-01 2.982220199034E+00 -4.203030210686E+00 4.214529007270E+00 9.665546453934E-01 -7.164112397034E-01 6.495914649235E-01 6.228734430991E-01 -5.376618022024E-02 -4.109405443349E-01 2.298513626891E-01 -3.997926047715E-01 7.250933102693E-01 1.883331075042E-01 -1.594595427541E+00 -8.518438912679E-01 -4.939258421350E-01 -3.944379582158E-01 1.199194075248E-01 1.240315070688E+00 1.385564352098E-01 -6.463255451888E-01 2.241214836859E-01 -1.074709202066E+00 -4.853955437387E-01 -2.243677477529E+00 6.089114988328E-01 -3.351849414389E-02 1.254221912847E+00 5.828808590900E-01 -7.726660467540E-01 -8.471822696720E-01 2.126575501533E+00 8.850324747474E-01 -3.054271801431E+00 -7.174293523899E-01 -8.128073752925E-01 3.445733991574E-02 5.908889209929E-01 2.173733027137E+00 -1.210235274177E+00 1.773475905436E+00 -1.075339678303E-01 -4.466348395438E-01 -8.779666731333E-01 2.899988938912E-01 -1.227051542742E+00 8.052981636463E+00
 -2.489618124654E+00 3.451053436701E-01 2.010308094161E+00 4.281808856238E+00 -6.280080575162E+00 -1.412100044063E+00 8.445301913915E-01 1.368677488433E+00 -5.592343788740E-02 -4.509767523071E-01 2.582099300777E-01 1.312705521575E-01 1.385472417464E+00 -1.329124307094E+00 2.045648416374E+00 1.780393727359E+00 -7.293746816164E-01 1.780005069425E+00 -1.284077820049E-01 -7.731933762366E-01 -2.119138322726E-01 -1.275571528093E+00 2.442017818887E-01 -3.497168895146E-01 -7.621468249206E-01 -2.968007090020E+00 -1.139530618070E+00 3.354636044261E-01 5.694736093704E-01 -6.290141724269E-02 -1.022468093387E+00 -7.049110223297E-01 -2.131023898958E-01 -5.396325500265E-01 -2.709943499486E+00 5.238427047671E+00 2.631608462670E+00 1.944544977111E+00 -9.626617643991E-01 -3.645101034463E-01 -2.885167724775E+00 8.470253140391E-02 -2.883449720112E+00 -6.004172036217E-01 -2.082694911532E-01 1.683520097088E+00 7.035995741898E-01 -1.328019119172E+00 -3.565374622698E+00 1.353431350743E+01
 4.073247464053E+00 -2.807212045548E+00 -4.595885099516E+00 -8.492534002893E-01 1.804442101064E-01 -9.085103322657E-01 -5.814056135843E-01 -1.412225997044E+00 -1.154828004188E+00 7.050928481369E-01 9.610441995921E-01 -9.779767439184E-01 -1.942126207320E+00 1.078642421738E+00 -3.585963962338E+00 -2.199102939500E+00 4.908662625065E-02 -3.005459335951E+00 5.161796302961E-01 7.463958242551E-01 7.313478694343E-01 7.083244751549E-01 -9.412549761742E-01 -6.234695143333E-02 3.089117935011E-01 1.548313345430E+00 -5.394100093988E+00 -4.627085683546E-01 -2.413698444705E-01 -1.570115408324E+00 1.593248257800E+00 -2.005853549278E-01 1.848429247763E+00 -1.940081718003E+00 7.054203230176E+00 -3.432865694796E+00 -2.939981758193E+00 -2.446707302775E+00 3.216424112893E-01 1.837834547430E+00 1.766737003182E+00 2.537063470219E-01 2.265703762363E+00 -3.861998378849E-01 -1.484852557831E-01 -5.195603418835E-01 1.885308020054E+00 4.826796070072E+00 9.376901406656E-01 -5.397197193088E+00 1.704185539609E+01
 1.319990786809E+00 8.691569849962E-01 1.261365406254E-01 -2.422651866778E-01 1.151370236074E+00 -2.804047240191E+00 7.267329141292E-01 7.516315721176E-01 1.493553452426E+00 1.961728155469E-02 4.534645286471E-03 4.330644986756E-01 -1.057223455309E+00 9.892550380417E-01 -2.875231328256E+00 8.794513119839E-01 7.282545855420E-01 -1.470648736509E+00 4.646210198645E-01 2.373593434842E-01 -3.583011051612E-01 -3.245429717354E-01 -5.318589768939E-01 1.200715309143E-01 -5.536471624105E-01 1.340062746809E+00 8.619103348031E-01 3.135589815688E-01 2.776221775604E-01 1.387036465328E+00 -1.245946073446E+00 -5.507866339294E-01 1.707606320115E+00 -5.000911459195E-01 -1.893813320098E-01 -2.607486838711E+00 -3.770077885348E-01 -2.813072127741E-01 -2.262443192286E-01 -1.037716206428E+00 -3.337248296218E+00 1.519477322189E+00 -1.614481735193E+00 -1.782265978275E-01 -3.111150446635E+00 1.360475960485E+00 -1.078558764095E+00 3.475745109153E+00 1.979228405100E-01 -6.864043535202E-01 4.407551967193E-01 3.858994095684E+00
 -5.578406905011E-01 -1.015013846100E-02 -4.249395019944E-01 4.191078023062E-01 6.728184703576E-01 1.449331315777E+00 -5.590921802707E-01 8.012625568124E-01 -2.037633956596E-01 4.960400819149E-01 1.296381444344E-01 1.939518839250E-01 1.279274283555E+00 -8.165588976054E-02 1.356922097981E+00 -7.317652181715E-01 -1.205478785299E+00 8.015836989086E-01 9.874131835027E-01 -2.412697094659E-01 -1.526701786369E+00 -9.083114272730E-01 5.698858380468E-01 6.589182224829E-01 4.159666154513E-01 -5.838459080079E-01 -2.653975710502E-01 -7.757436998935E-01 -6.511487339333E-01 5.895062104427E-01 -1.213057646880E+00 -6.215676513800E-01 -2.992251230483E-01 5.710979738723E-01 5.089594623342E-01 1.676931182549E+00 -1.505990708499E+00 -2.387221437160E+00 6.229491933400E-01 2.248177123565E+00 4.258375856945E+00 1.185003555390E+00 -2.346441740240E+00 -1.826676239090E+00 -2.735983923069E+00 4.423470348467E-01 -7.417421567066E-01 -4.707592618548E+00 1.594394138807E-01 7.654354820401E-01 -1.618019653806E+00 -1.061830494736E+00 4.816769433711E+00
 -4.710464758002E-01 8.210533238512E-01 3.291845089341E-01 4.394874274268E-01 -2.121675866393E-01 -2.219081382546E-01 7.959838528370E-01 1.391334933472E+00 5.702349740277E-01 4.055092605879E-01 3.085323356568E-01 2.505323473935E-01 -8.588964522690E-01 6.080150657792E-01 1.818961966376E-01 2.265809036132E-01 -6.763474609132E-01 6.337811428478E-01 -4.807685642927E-01 6.378495303075E-01 1.133797955466E+00 -9.326817432342E-01 -4.490355252393E-01 8.871814238712E-01 -2.829765727007E-01 -6.203463128492E-02 7.653019001929E-01 -1.753808821938E+00 -7.850585471563E-01 1.283571165771E-01 6.148568126332E-01 1.177581900830E-03 -4.810174845351E-01 -2.337198092709E-01 -2.158407535207E+00 1.171281830437E-02 -2.798755029674E-01 -3.447768435742E-01 -6.942666958075E-01 1.449736108744E+00 2.206649801596E+00 -2.711360598243E-02 -2.235316572059E+00 -2.105029922353E+00 -7.437614088756E+00 1.759883273121E+00 -1.620524993284E+00 -2.107903954050E+00 1.095398471823E-01 1.104119718003E+00 -4.486740220041E-01 1.827817677563E+00 2.757587665430E+00 6.124055970330E+00