#BIOSYM hessian 1
@Type: Hessian Update
@Units
 distance: 	A
 energy: 	Kcal/Mol
#header
@natom 19

#label
L1      L2      L3      L4      L5      L6      L7      L8      L9      L10     L11     L12     L13     L14     L15     L16     L17     L18     L19

#element
Li Li Li Li Li Li Li Li Li Li Li Li Li Li Li Li Li Li Li

#matrix
57
 2.424058910105E+01
 1.968970992871E+00 1.887600985215E+01
 -5.495384838666E+00 -3.878844282704E+00 2.030742441023E+01
 -1.887718287518E+00 1.543224991157E+00 1.185610798397E+00 3.059419034853E+01
 5.703429227348E-01 1.874032254999E+00 9.588206834986E-01 6.572396139415E-01 3.029202022338E+01
 1.707286972541E+00 2.287001114431E+00 6.991193495475E-02 1.194057594651E+01 -9.104210852396E-01 6.021098835746E+01
 -7.168788353979E-01 -1.482387110925E-01 -6.194409653091E-01 -2.643545939891E+00 -1.533740827843E+00 1.222128881414E+00 2.367894008037E+01
 -4.450483105525E-01 -1.572689745710E+00 9.312329057512E-01 -2.756335482046E-01 4.918493621551E+00 -6.383036632489E+00 1.364284446591E+00 1.684138547827E+01
 7.298477870730E-01 1.688306595788E+00 4.929751707547E-01 -7.896407304581E-01 -1.340127901605E+00 1.545905445195E+00 -4.426050554944E+00 3.145539428143E-01 2.482076469513E+01
 -1.165577513220E+00 -3.107239860921E-01 -2.779036229729E-01 9.256776944738E-02 1.912752556468E+00 4.010312181901E-01 4.827618320525E-03 -8.093021739629E-02 -1.013224491371E-01 1.177238523084E+01
 -7.793823031941E-01 -7.651087410074E-01 3.481172189223E-01 7.306205446901E-01 -4.737034099851E+00 -7.309272567827E+00 -3.950502766253E-03 6.632217896168E-01 2.230494297897E-01 -5.294279726017E+00 1.506586360535E+01
 -5.627474263400E-01 -4.312966163541E-01 -1.873195144219E-01 1.939596795642E+00 -8.933136485133E+00 -1.530289228245E+01 1.172456889274E+00 1.199448404484E+00 6.473200056086E-02 -2.416127638158E+00 6.994825406143E+00 2.661483784748E+01
 3.777179106812E-01 -4.491219214461E-01 8.162837829673E-02 -4.423604638829E-01 -1.522663839130E+00 9.253569897417E-01 -3.193552022411E-01 7.168318837600E-02 1.170064179798E-01 -4.064267992359E-01 7.829364993752E-01 -3.046820571070E-01 1.061081781653E+01
 -1.553456921152E-01 6.874388920437E-01 -4.257696715200E-01 -2.547719422682E+00 -1.141102180017E+01 1.067437221877E+01 1.389240699899E-01 -4.304423310281E-02 5.230220764954E-01 -1.086337843419E+00 -4.797639151974E+00 3.528060039506E-01 6.643186853355E+00 2.132477440046E+01
 2.735608049276E-01 5.635980439878E-01 4.117901227219E-01 2.926749155017E+00 1.194219839695E+01 -1.123632544199E+01 -4.344933240389E-01 5.702745005323E-01 -1.112642836881E-01 1.418468881686E+00 -2.031536722832E+00 -1.038462869584E+00 -1.237678411021E-01 -8.494374022077E+00 2.311830539835E+01
 -2.805231542700E+00 -3.145535033827E+00 5.906397828552E+00 -1.149726363131E-02 -2.366555928370E+00 -1.139396323026E+00 4.702034451751E-02 1.523596960813E+00 -1.224768117590E-01 7.779336288733E-01 -5.253416911822E-01 -3.281949860500E-01 -1.502157946671E+00 -9.629637967555E-01 -3.166280585601E+00 2.189065102602E+01
 -7.409060805852E-01 1.669071718354E+00 2.042275079513E+00 -3.354439772555E+00 -6.621066869418E+00 -2.941439266811E+00 4.997181404204E-01 -1.925855717696E+00 3.453314615315E-01 -6.586993541245E-01 -7.791320786879E-02 -7.265787882603E-03 -1.234398193625E-01 -2.607701483633E-01 -1.482374933402E+00 -2.258450337612E+00 2.484996013704E+01
 5.976743789837E+00 2.420700011519E+00 -1.188472402571E+01 -1.487439588404E+00 1.760481973243E-01 -1.523283398998E+00 1.110394130655E-01 -1.700389774782E+00 -8.964898061899E-01 -7.766399400498E-01 -5.372392360614E-01 -5.819405869042E-01 -3.794616245183E+00 -2.981122785080E+00 -7.477318818028E+00 -2.533529121441E+00 1.156126431148E+00 2.931845709329E+01
 2.362231058886E-01 5.931765145188E+00 1.074347630087E+00 -6.199804717483E+00 3.159884959162E+00 -1.930931805756E+01 4.201635686205E-01 -6.932897954581E+00 -5.131519826500E-01 7.958178454622E-01 -8.906011550403E-01 1.036085815899E+00 -4.320425693587E-01 -7.042357898745E-02 1.818563774823E+00 3.590018970938E-01 -8.256609051092E-01 -1.107878269847E+00 7.066135098688E+01
 1.229508709545E+00 -5.401893630646E-02 -3.791069260632E+00 -2.352072216677E+00 2.863632678140E+00 3.951529892575E+00 9.479048879420E-02 -4.284495214605E+00 7.525077784596E-01 4.923397707487E-01 -9.715746553883E-01 -8.289974468328E-01 2.798400210378E-01 3.278856435298E-01 -1.450523311481E-01 2.739630617048E-01 -9.025476603725E+00 2.587814008819E+00 3.746330671122E+00 2.728035688015E+01
 1.024970413079E+00 -6.503783971289E+00 5.151637219962E-01 -1.285653707340E+01 1.361688770440E+00 -1.450860806042E+01 -1.709054847574E-01 3.428553325322E-01 7.604191147987E-01 -1.581759862652E-01 -1.182337614190E+00 1.384009896089E+00 -1.557349564696E+00 -6.063548394331E-01 7.527710414158E-01 -9.736183797186E-01 5.779195774645E+00 -1.816263817814E+00 9.352533938480E+00 -4.090702622305E-01 4.973992435082E+01
 -4.570678874353E-01 -7.624576673840E-01 6.692676297706E-01 -1.313649996220E+00 2.508613778367E+00 5.377430326183E-01 -4.907824821444E+00 2.711037891029E-01 5.722114933397E+00 -2.343551764457E+00 1.080365154959E+00 -2.801648096171E+00 2.458799630464E-01 1.167645345802E+00 -5.211511931854E-01 6.305469120853E-01 4.211798830064E-01 -5.675834380541E-01 1.818531745968E-01 2.069118078158E+00 5.613878525459E-01 2.222736919630E+01
 -2.867719975050E-01 -2.118277999453E+00 2.241751281512E-01 6.195431063311E+00 -6.900010774742E+00 3.021504941289E-01 -2.010165488345E-01 1.716588107787E+00 3.209684183275E+00 1.235106507515E+00 -8.450521805023E-01 1.246102910002E+00 -1.617450554336E-01 -4.004921615250E-01 -6.053356071598E-01 1.078180695787E+00 -1.120944885302E-01 1.437364364360E+00 -9.881958940368E-02 -4.800251946100E+00 -5.406462594339E+00 1.852664683907E+00 2.204035468741E+01
 -1.018784000397E-01 -8.395428310675E-02 -3.767738674349E-01 1.953387219821E+00 -3.437281151878E+00 6.552462757846E-01 5.491133777840E+00 3.042689731395E+00 -1.316260779351E+01 -4.052325934702E+00 3.286391200009E+00 -6.677130537021E+00 8.434394217979E-01 1.147940432113E+00 -4.232994196959E-01 3.833650003418E-01 1.508298184077E-01 1.264001352495E+00 -3.924588931608E-01 -4.263615446635E+00 -3.888029479048E+00 -7.480168707397E-01 -2.737215514380E+00 2.886943558837E+01
 2.087217971900E-02 6.081578065655E-01 -6.984046706415E-02 -1.153096521106E+01 -9.167872263213E-01 -8.547704665053E+00 2.812977750836E-01 1.197364170237E+00 -4.103952060747E-02 -5.252940965842E+00 2.227029453661E+00 2.332163192118E+00 -5.363634374934E+00 -2.367250769086E+00 -4.010757315393E-01 -1.684486787277E-01 5.043387055043E-01 -3.184557679384E-01 1.479314774267E-01 -1.405357036533E+00 1.373729968270E+00 -5.815465575554E-01 -3.941752932509E-01 -1.953030550036E+00 2.919776335453E+01
 -1.336217815156E+00 4.171798568047E-01 -3.488718622236E-01 1.199628286257E+00 1.067963702024E+00 3.983047360362E-01 5.719916539453E-01 8.618243292974E-02 7.349746475459E-01 3.010508444643E+00 -2.728891618522E+00 -1.219419296644E+00 -4.823615892964E+00 -2.506610955829E+00 7.315254856501E-02 1.833117772708E-01 2.263931064757E-01 1.573348920753E-01 1.361437456715E-01 -1.007309126327E+00 2.215806705901E-01 4.497602647865E-01 2.977187131184E-01 5.664198259148E-01 9.300929819640E-01 1.341195637407E+01
 -2.424913526515E-01 -9.566612959072E-01 -2.125085917927E-01 -9.425068682320E+00 -2.217800680490E+00 -5.989265817941E+00 -3.018450418069E-02 3.689219000624E-01 -4.582416194715E-01 3.057332501859E+00 -9.511237214030E-01 -1.802614063012E-01 2.630006452359E+00 1.629838121590E+00 -4.283437593680E-01 5.061817687567E-01 5.241812444725E-02 -5.128541301708E-01 1.495221271706E-01 1.005888841584E+00 -4.877186533118E-01 5.818174850308E-01 -6.879411197525E-02 -1.725253025206E-01 2.911976650470E+00 -8.539134064170E-02 2.135700581159E+01
 -2.935097894175E+00 1.104896975535E+00 -4.504085634751E+00 -2.520554882477E+00 4.007336132989E+00 3.455123118901E+00 -5.993398133585E-01 1.059448739299E+00 -3.322792345879E-01 -4.059971371217E-01 3.985477272113E-01 -1.844501054716E-01 -1.124704146602E+00 4.159188502224E-01 1.840041510560E-01 -9.827630669329E+00 -1.188551403767E+00 1.221251105890E+00 2.189138094916E+00 -1.217280842494E+00 1.416327602272E-01 -1.783318744035E+00 -2.133413163494E+00 5.647220263815E-02 -1.009826192872E+00 -1.132627114239E+00 -1.383952445747E+00 2.251696226139E+01
 -7.929212346253E-01 -9.927230753199E-01 2.913358569643E-01 4.710648865326E+00 -5.485919206116E+00 -4.910747184742E+00 -5.238281538436E-01 -2.411443113957E+00 -1.127325871642E+00 5.176343900335E-02 -6.085134857872E-01 -3.247797927140E-01 -3.100696162625E-01 -3.861576387657E-01 5.276154149807E-02 -4.252414527845E-01 -1.017121555419E+00 -6.808401972706E-01 -3.104675231883E+00 2.587692685706E+00 1.970671579769E-01 -1.582593340009E+00 -8.159471324051E-01 9.540200651045E-01 -4.430501719627E-01 -3.177356353548E+00 -2.847406188975E+00 1.312349719635E+00 2.349668429706E+01
 -2.280282465577E+00 4.642792200234E-01 -4.686243018060E+00 -1.646011103919E+00 -1.978822878029E+00 -7.202027844924E-01 -3.525768485765E-01 -1.560955967872E-01 -1.867015242922E+00 8.121247990571E-02 4.062469817792E-01 9.912540714934E-01 3.751406368505E-01 -7.026127687354E-01 -1.113566169199E+00 2.250807536375E+00 -8.033175871618E-02 -7.108812886579E-01 -1.008510466895E+00 -1.304728124577E+00 -6.234732805838E-01 -5.975719100044E-01 3.071227112362E-01 3.848433799616E-01 1.050853578621E+00 -3.675058503368E+00 -3.688351955712E+00 1.088579112882E+00 1.095093458646E+00 1.798924016035E+01
 -1.974547166389E+00 -4.529432467883E+00 -4.634378631705E-01 5.005089595503E+00 -1.856951889930E+00 4.657837276950E+00 -2.806771153150E+00 1.905586335871E+00 1.243127538048E-01 -1.294075846234E+00 1.385563521372E+00 2.979258320828E-01 -5.425718002294E-01 -7.320610016587E-02 -2.352632039309E+00 1.748490383311E+00 4.100350606494E-01 -1.158306698653E+00 -3.209061322090E+01 3.661290342092E-01 3.332073156670E+00 2.676415600130E+00 -2.691144246006E+00 -2.347070907255E-01 1.832966864920E+00 1.236750077376E-01 3.956864212300E-01 -3.661687830532E+00 2.539774345047E-01 2.345282969552E+00 5.818285633216E+01
 -1.693171811791E+00 -2.698082496642E+00 -3.198190776323E+00 -3.334522613930E+00 1.406472980451E+00 6.491221663121E+00 1.074208091108E-01 -3.850441780445E+00 1.773405114029E+00 1.961568860249E+00 -6.351986970280E-01 -1.228453522661E-01 -1.920036269665E-01 -2.089144168670E-01 -8.219628550441E-01 -4.436586541406E-01 2.126119041428E+00 1.012580787512E+00 5.117556590014E-01 -2.837304856068E-01 1.737336016699E+00 -2.374118056594E-01 2.632062538945E+00 -8.243454441380E-01 -1.388636821998E+00 3.650622329479E-01 1.585556093768E+00 2.260905038211E+00 -7.793841040029E+00 1.942905457253E+00 5.551709415037E+00 3.604326363757E+01
 6.714927490096E-02 9.803218081774E-01 -9.906251890583E-01 6.376283910389E+00 4.442754199845E+00 -1.298171609558E+01 -1.675714253544E+00 7.199110254812E+00 -1.815213875249E+00 1.210251176269E+00 -1.251838980578E-01 -4.957498929447E-01 2.903202150718E-01 -1.365628328075E+00 5.030149893207E-01 -2.327399646234E+00 -7.478335265791E-01 3.656894406856E-02 5.400194158411E+00 -3.469305476331E+00 5.034381824279E+00 -7.630135946391E-01 2.604649276887E+00 1.952514511694E-01 6.321923326524E-01 -3.902743626980E-01 3.513195302626E+00 -1.988237296615E+00 6.239089260855E+00 -2.877222263960E+00 -4.785276766638E+00 -6.766956819551E+00 3.388183669903E+01
 -1.177856949609E+00 2.854262549490E-01 -2.041800611783E-01 -1.174768566241E+00 -4.814247360559E+00 2.871532395666E+00 -3.481576543178E+00 1.558503698375E+00 -3.804416209924E+00 -1.204928310364E+00 -7.681286867465E-01 -1.079135618658E+00 -1.054731479821E+00 2.264280983574E-01 -1.456710127665E+00 -1.491994395885E+00 1.379166976265E+00 2.108249198659E+00 3.429637056818E-01 -3.866799101153E-01 -8.032314671639E-01 -8.102273121943E+00 -1.145565100173E+00 7.154362034190E-01 -1.963450635058E+00 2.458353688423E+00 -1.061368121898E+00 1.116824236071E+00 1.112786222510E+00 8.663430663972E-01 -1.902012083747E-02 -2.662539611815E+00 -3.766992458016E+00 2.494793233985E+01
 5.439888053657E-01 -2.055763637601E+00 2.429352946198E-01 -3.461156391980E+00 -7.050866910980E+00 1.110789885202E+00 3.315776711515E-01 -8.132108727869E-01 1.675333942188E+00 2.492288092602E-01 -6.468888278416E-02 6.687497978704E-01 -1.447156353237E-02 -6.605666803826E-01 -4.607863794310E-01 1.997348337361E-01 -1.106354113339E+00 -7.678680645126E-01 1.097414657332E+00 2.133045676629E+00 1.609025608556E+00 -3.661858198756E-01 -9.654045879857E-01 -1.668724386476E+00 1.422632459266E+00 -4.257603290385E+00 2.100970317526E+00 -3.981224477667E-01 -2.708952247700E-01 -8.544593683335E-01 -1.010953000237E+00 -6.937154029859E+00 -7.977660260643E+00 -1.162371394235E+00 2.597574001894E+01
 -2.272984550728E+00 8.803068330825E-01 -2.310611444397E-01 -2.411036060061E+00 1.278799360969E-01 -1.296882852042E+00 -4.921575245717E+00 8.259330685007E-01 -6.080690278554E+00 1.000537679455E+00 5.052661498733E-01 -1.950272659914E+00 -6.381987949417E-01 2.355671014033E-01 9.169025304539E-01 1.128111075348E+00 -6.337923941075E-01 -1.725683945646E-01 1.388608790845E+00 -7.438885742307E-01 -3.198833904235E-01 1.278347335490E+00 -6.665954384992E-01 -6.266975228127E-01 1.124849713632E+00 2.971649378119E+00 -2.612506840187E+00 5.587682004106E-01 3.118930260713E-01 4.963606443949E-01 -9.019662101872E-01 -6.186151222763E+00 -4.600253099319E+00 3.634865833733E+00 3.001427693839E+00 2.129004294370E+01
 -1.773630180381E-01 -1.107642284105E+00 -3.723470207471E-01 3.758590725076E-01 1.055868145376E-01 1.879857264669E+00 -5.096291393699E+00 -9.146804179044E-01 -1.518082267522E-01 3.232665521530E-01 -3.621295228197E-01 -3.651881528229E-01 8.237807726260E-01 -9.520964660911E-01 3.456738318680E-02 -1.113659523267E+00 -3.320658728151E-01 6.815689155533E-01 -1.446290765855E+01 1.019376371203E+01 -4.418330808679E+00 -3.607497228461E+00 5.644462692392E-01 -2.806869831597E+00 -4.246794471202E-01 -5.303275618329E-01 8.660908814555E-01 6.934272187548E-01 3.876268691558E-01 -5.192093233296E-01 2.993005496140E-01 -4.191391426555E-01 -7.197912023082E-01 -1.679880330042E+00 1.189064543167E+00 -1.666730790980E+00 2.400782518136E+01
 3.719548724274E-01 -8.312994267684E-02 3.705547580388E-01 1.080208669631E+00 1.006779345461E+00 -1.335900354537E+00 -3.077457120938E+00 -1.985083531771E+00 4.717625763660E-01 5.177784406553E-02 3.780445463824E-01 2.045398435238E-01 -6.950706163624E-02 -3.234852455371E-02 1.023222916496E-01 -1.361911095459E-01 -1.023269726290E+00 6.838298723616E-04 1.046976221747E+01 -7.841470989163E+00 2.593090173463E+00 1.370060011931E-01 -9.022711944966E-01 -4.406493746322E-01 -7.245647244726E-01 -4.418759550966E-01 -1.056770345784E-03 1.046789775540E-01 2.609196717856E-01 3.385879581733E-01 -7.758085427141E-01 6.900032696684E-01 -2.637207814172E-01 -6.823396817447E-02 9.171453889013E-01 1.024395200108E+00 -6.957270512874E+00 1.526595990137E+01
 1.859326006248E-02 7.509346283765E-02 4.520737320645E-02 -3.240520842227E-01 -1.320881650609E-01 1.903982276178E-01 1.335737576012E+00 9.659482468688E-01 -2.815906493643E-01 -2.852829989512E-01 -3.259325116400E-02 -2.501702652478E-01 -8.141130200805E-01 -2.903590328442E-01 -6.781150006475E-02 -4.613430566610E-01 -7.940155213567E-01 -1.498251290924E-01 -4.196628220753E+00 2.756305363699E+00 -1.039344067884E+00 -4.090857530168E+00 3.887769573097E-01 -5.341759418046E+00 3.168031439519E-01 6.209995383162E-01 -5.091038892406E-01 9.058651508483E-01 -6.433095176927E-02 -1.146598314494E+00 1.805761294281E-01 -1.188535685154E+00 8.391988852954E-02 -4.308774687210E-02 1.149222419364E+00 -5.787037129670E-01 6.985767597379E+00 -1.933834931782E+00 8.489916073154E+00
 -8.633842186407E+00 -5.423319743630E-02 -4.828723591665E-01 1.286002299310E+00 -1.050476818103E+00 6.293126162073E-01 -1.528649467344E-01 1.493874468172E+00 4.236221356477E-01 -4.839939288196E-01 1.415055526832E+00 2.080079072124E-01 2.622214306797E-01 4.077978985771E-01 -6.368976644402E-01 -2.821330951960E+00 7.782533192538E-01 -1.810634609928E+00 -1.202075244049E+01 -1.052991951303E+01 -6.997540738998E+00 1.030794367539E-01 6.750826196149E-01 -9.453588888244E-02 -8.352059191972E-01 -2.591340194370E-01 -2.262313156508E-01 -8.743450078825E-01 -8.920996983859E-02 1.987784458606E-01 1.260500570112E+00 -8.573918489788E-01 -2.967716193153E+00 4.913469216217E-02 5.256397482128E-01 2.027950596770E+00 4.985498130258E-01 6.069845447885E-01 7.014045823676E-01 2.526330788129E+01
 1.467615180001E+00 -1.166117984251E+00 7.107506232064E-02 8.559974693437E-01 -4.983689418716E-01 8.738793418210E-01 -7.257417002543E-01 1.834336328227E-01 -4.347067072572E-01 -7.828889130614E-01 8.435495363876E-01 1.524846443427E-01 1.231710468492E-01 1.973127223603E-01 -2.378942244091E-01 1.954429209201E+00 -7.608264756190E-01 1.156726283603E+00 -1.110853657756E+01 -1.034714113788E+01 -5.956683287607E+00 -1.417789497860E+00 -3.623147208783E-01 3.298532186722E-01 5.181995550251E-01 -4.867483825475E-01 -7.714685368291E-01 -5.128901613041E-01 1.902667459729E-01 8.175219730609E-01 2.723366441331E-01 -1.027850332135E-01 -9.735437708378E-01 1.772536786640E-02 1.718341701855E-01 1.149709478272E+00 -4.804501514140E-01 -4.096927205275E+00 -5.620682913995E-01 7.644768787538E+00 1.744266701787E+01
 1.526348957481E+00 6.538723099784E-01 -3.862924304272E-01 -8.005685356567E-01 -1.422165420454E+00 -3.639942616027E-01 -5.185329411107E-02 -4.016939506095E-01 -6.278460935543E-01 -1.568266435059E+00 7.314201502141E-01 8.072617855149E-01 2.725120234198E-01 2.794966309472E-01 -7.861390995270E-01 -2.389868152497E+00 5.670401059334E-01 -4.220490679475E+00 -8.047450217679E+00 -6.377580350692E+00 -3.418379736932E+00 1.088354496939E-01 4.517222400240E-01 -8.329447652340E-02 -7.385842524818E-02 -5.939893259596E-01 -5.919411465486E-01 -5.259081357180E-01 -5.920848120864E-02 9.980586212424E-02 8.624724415991E-01 -4.616593783169E-01 3.480437536007E-02 9.236288379121E-01 2.810180689452E-01 -4.406551516826E-01 8.925736582009E-02 1.092874475909E-01 -4.774693073589E-01 8.744115996087E+00 5.137049498924E+00 9.604809387846E+00
 1.439320088004E+00 1.676882411926E+00 -4.574565461031E-01 -1.071819759678E+01 -8.207092292580E-01 1.579535151415E+00 1.229228420069E+00 -2.229746050907E+00 -1.817283068686E-03 -2.900956382120E-01 5.226276914962E-01 6.002368136243E-01 -3.216423147090E-01 -4.195056113664E-01 -3.220360409596E-01 -3.642215685427E+00 3.940834943512E+00 3.108493013066E+00 -9.318078622687E+00 -1.672753707647E+00 9.928924500560E+00 -9.251174579260E-01 -3.274004648551E+00 1.298041374322E+00 -9.039398977922E-01 -4.100608208358E-01 -1.719566709756E-01 8.440865700818E-01 4.554006052652E-01 2.546489169646E-01 -7.173314534369E-01 4.546776490119E-01 -2.403495660055E-01 -4.456675043908E-01 -3.050231014324E-01 -8.456048360644E-01 -9.561053424866E-01 -8.881581179474E-02 -1.630379852081E+00 -2.655819370790E-01 5.341751830205E-01 -3.983585711002E-01 2.484308510861E+01
 9.823507189272E-01 -8.138045047275E-01 -3.130435079068E-01 -1.323696390769E+00 3.842044239537E-01 -3.858242211393E-01 -3.930195202481E-02 -1.006074594637E+00 -4.944601206020E-01 1.508882781082E-01 -8.763502002163E-01 1.080463191525E+00 1.659892367184E-01 -3.348863800793E-01 -3.879286281803E-01 5.317418746176E+00 -8.299110335748E+00 -4.675176153582E+00 8.232096412453E-01 2.619096437800E+00 2.160965347234E+00 -6.002926086934E+00 -8.974215489440E+00 2.814521389903E+00 5.892277503902E-01 -8.001184163737E-02 2.234298947942E-01 1.924194284472E+00 1.291512138830E+00 7.771714538478E-02 -5.344033440761E-01 -2.059572653067E+00 -5.666040687140E-01 -1.461447458547E+00 5.610015879500E-02 2.953774571358E-01 -5.521028379647E-01 -6.636635078958E-01 -3.940685992146E-01 -1.097964128952E-01 -1.754447829241E-01 4.387528355410E-01 1.127078270408E+00 2.044522893906E+01
 6.789156534368E-01 -9.231407959294E-01 -4.025306579715E-01 3.077154787140E+00 2.308508231161E+00 -1.759569541593E+00 1.509344720073E+00 2.325685212807E-01 4.853400609020E-01 3.198533376244E-01 9.493894270043E-02 -5.861562135034E-01 3.315598906141E-01 -3.049282621507E-01 -4.551515473938E-01 2.305718791660E+00 -2.697585404052E+00 -8.220622391680E-01 9.002151722848E+00 4.296974349885E+00 -1.117689334065E+01 8.746211638382E-01 -6.751141555581E-01 -3.716713133095E-01 -1.798986686609E+00 -5.945577035131E-01 2.439370710140E-01 -8.376850200261E-01 4.782206467584E-01 7.301035153649E-01 -1.091277845644E+00 3.148314399619E-02 1.227276388929E-01 -1.391510559022E+00 -6.773709292431E-01 8.699631084527E-01 5.788442728910E-01 -1.117214066534E+00 4.347471630298E-01 3.608116297149E-01 3.266999791126E-01 8.742265380962E-01 -1.313013411566E+01 -3.801062428996E-01 1.408643216257E+01
 9.844806821304E-01 -9.351303411079E-01 4.087294903540E-01 -5.539641000456E-01 -1.814964680997E-01 5.571129967254E-01 1.130804998891E+00 -3.701441880697E-01 9.897540118393E-01 -6.515939969850E-01 -3.488667564784E-01 8.701958792616E-01 -1.244929588625E+00 1.282482638309E-01 7.181229243953E-02 -7.376766722877E-02 1.218486104747E+00 8.528021971654E-01 4.677209182615E-01 -5.581625349545E-01 1.499491905530E+00 -4.918218058104E-01 4.732231573900E-02 -1.344611175310E-01 -1.116012838139E+00 5.910791092285E-01 -1.646347748369E+00 9.239806518467E-01 2.534266086899E-01 -1.070592451640E+00 -1.763363155842E+00 8.603664462572E-02 -1.284931532800E+00 1.027150074170E-01 -2.552472175729E-01 -1.001721747295E+00 -2.424647452624E-01 -7.121580403489E-01 1.128555103528E-01 8.071584492085E-02 1.154941275602E+00 3.174792695871E-01 1.570424021377E+00 -5.569280610664E-01 3.166077611327E-01 1.614492214395E+00
 1.640446049651E+00 -1.006460649510E+01 4.566366636665E+00 -1.435038484715E-01 -1.093050477012E+00 -7.792957411281E-01 -3.508992565302E-01 -5.974471717154E+00 -6.492277864473E+00 -2.807489386992E-01 -2.978269188236E-01 -7.870479817591E-01 7.968973007120E-01 -6.553328783858E-01 6.166648267915E-01 3.923378981518E-01 5.527966845252E-01 1.816861393098E-01 -1.361692350879E+00 7.219339509931E-01 5.207663508221E+00 -3.464333789071E-01 -2.761728341748E-01 2.915033317412E-01 -1.024059357352E-01 -9.427425087186E-01 1.493024691886E-01 -1.978604440582E-01 9.068963197071E-01 1.862030556229E+00 3.276724938193E-01 -1.012640909893E+00 3.919046457166E-01 -1.487242079317E-01 1.428680089987E-01 -1.539471602654E+00 -1.729603497228E-01 -9.516237665396E-01 -2.947552311894E-01 -4.394106876203E-01 -6.118708554581E-01 -3.608161657411E-02 4.692174818028E-01 4.810597174803E-01 -6.098264778782E-01 5.230451801708E-01 1.977420477987E+01
 -1.161874417901E+00 1.680065429785E+00 -1.769217317516E+00 -1.231571178893E+00 1.994610654856E-01 1.199836897998E+00 2.347664358596E-01 -4.931809831400E+00 -2.077326924137E+00 2.607391044056E-01 -4.073423816670E-01 -3.680110063123E-01 -4.705913943090E-01 -5.894120033842E-01 -1.024381729504E-01 1.549137919774E-01 -6.590285099149E-01 6.632011137169E-01 7.073082711832E+00 5.061417834744E+00 -2.089973090238E+01 -1.585907851803E+00 -1.833786518447E-01 -5.249583606183E-01 -3.575718445241E-01 -1.277012247498E-01 -5.811702136857E-01 7.480639774297E-01 -4.990697849278E-01 7.001560081359E-02 -5.578776088868E+00 3.708708510885E+00 -6.173404475679E+00 -4.226623628501E-01 -3.537477611954E-01 -1.279941570454E+00 9.241597200365E-01 -3.706283421880E-01 1.027672074329E+00 -3.218977270837E-01 -4.551615106247E-01 2.149566608248E-01 1.938530698439E+00 8.243108059251E-01 -5.134880547141E-01 -8.163814354657E-01 -2.722339401003E+00 3.209772577418E+01
 -8.104247501755E+00 -3.069975462416E+00 3.465184777416E+00 4.601110884194E-01 -3.589531402182E-01 -4.867318091480E-01 6.937102462751E-01 8.824470994876E-01 -2.269478338414E-01 2.498895600158E-01 7.718465195703E-02 9.390400825974E-02 -2.758804124254E-02 -1.510933440808E-01 1.074963310055E-01 -6.402025526649E-01 -1.180921128898E-01 -5.906550713672E-01 -4.316987988321E-01 -1.827756829776E-01 1.817419500636E-01 -9.625260576725E-01 -7.685057934708E-01 -1.679522968172E-01 -1.480197728740E+00 4.301918358645E-01 3.279694276323E-03 -7.564172885879E-01 8.110426585085E-01 -4.487107966830E-01 -6.536374517188E+00 7.170265418447E+00 7.231504056186E+00 8.326224967647E-01 -9.212798100908E-01 6.658181331193E-01 9.788845808216E-01 -6.114154100253E-01 7.124697634718E-01 -3.866264843304E-01 -3.726861020713E-02 5.565496161756E-01 -3.831609934257E-01 6.737938021232E-01 -3.348636504237E-01 -3.155394378617E-01 -5.411313130273E-01 3.776810125930E-01 1.782054775640E+01
 -3.615248822486E+00 -8.381251612396E-01 1.290275543511E+00 -1.630165259168E-01 -2.094565595501E-01 5.014742847358E-01 3.704124660899E-01 -2.925943117235E-01 -7.321205970911E-01 1.972517088634E-01 -3.174529398242E-01 1.682441847022E-01 -6.351931675409E-01 4.722744465056E-01 -5.591672651990E-01 9.717157147404E-01 3.582821962938E-01 1.520385538974E-01 -2.778750019190E+00 4.603074312378E-01 3.133896875957E-01 -2.894558468769E-01 -5.889400109700E-01 4.078709447134E-01 8.232412755825E-01 8.337808383283E-01 -1.346692516323E-01 -1.678953283567E+00 -1.479980335882E+00 9.417307549021E-01 6.127729167197E+00 -7.079116262951E+00 -7.121278993272E+00 1.723985928840E+00 -9.537453615519E-01 1.299516093002E-01 5.831309845526E-01 -3.773893489246E-01 -3.194016867761E-01 1.188831597573E+00 5.700338595388E-01 1.058697691604E-01 -4.398649974309E-01 -7.835774282113E-02 8.733042193647E-02 5.301453998403E-01 -1.025286800891E+00 -3.516566539127E-01 -1.796409553489E+00 1.680147169687E+01
 1.507493345221E+00 3.821666673267E-01 -6.242672613889E-01 8.597599370442E-02 -1.527818672986E+00 -3.784253379707E-02 -1.234470297336E-02 -1.069474162904E+00 -1.639192918945E-01 8.781453268144E-01 -4.401295122617E-01 -3.041916233789E-01 -2.225766993466E-01 3.074860535609E-01 -7.759152400762E-01 1.261383588665E+00 -5.860411923146E-02 -6.191163020506E-01 -1.527198962699E+00 1.830117968070E+00 6.233492105660E-01 -1.865878683342E-01 1.772488176905E-01 -1.579998781407E-01 4.519661936583E-01 3.443848199209E-01 -5.205856785551E-01 -2.726559608521E-01 -7.732741305358E-01 -1.999195376768E+00 6.381370019299E+00 -6.769259582065E+00 -7.312081295483E+00 1.676113208350E+00 1.187496877809E+00 -7.624151135228E-01 -1.356286035887E-01 3.294876171042E-01 3.246121479747E-01 3.056018999563E-01 -5.029943943426E-01 -2.032953069184E-01 -8.359792360098E-01 -2.238567967207E-02 -2.545679999140E-01 6.054889533840E-01 -3.559420513332E-01 -2.032726647303E-01 -7.982685166369E+00 9.150967761762E+00 1.852454566634E+01
 1.536398799656E+00 1.314457452030E+00 4.244267552164E-01 1.381433874660E+00 4.454293546879E-01 -1.868043808332E+00 8.112235790293E-01 -1.293798623687E+00 -3.329095137096E-01 -6.244378133255E-01 6.174040391232E-01 -3.549868277370E-01 4.088131787732E-01 -3.983506232911E-01 1.320165646544E+00 -4.627696521401E-01 6.698894753432E-01 -1.960333467584E-02 -4.274778492572E-01 7.014303858872E-01 2.273798167722E-01 -6.202974403674E-01 -8.493375373137E-01 4.354424625043E-01 -1.024385950175E+00 -1.147171503085E+00 3.106267533969E+00 -3.094329892791E+00 -2.614068518521E+00 -3.484941764847E-01 -1.770437201086E+01 7.384354747589E-01 -4.943273649903E+00 -4.030803071509E+00 2.745468235741E+00 1.613689797792E+00 2.472903644836E-01 2.564200919689E-01 -9.312154530035E-03 -7.788815176097E-01 5.334707751151E-01 1.081069253635E-01 -4.597864100946E-01 -4.468887653294E-01 -6.420077951437E-01 -8.783406762146E-01 -3.528498939873E-01 -5.103875792102E-01 -1.133947061060E-01 -7.534709335443E-01 -1.461440623561E+00 2.814210510444E+01
 -1.325564101636E-01 7.401818675074E-02 1.106770091811E-01 1.835311780301E-01 -1.591277659429E-01 -9.038519223908E-01 1.405471897414E+00 -8.096221023882E-01 2.464585211202E-01 1.749098934770E-01 3.698101927465E-01 3.251095237978E-01 1.015407496019E-01 2.329099211562E-01 1.489490645732E-01 -1.897193904657E+00 1.067680788275E+00 3.555587648326E-01 7.892389940426E-01 -1.322639410439E+00 -1.082737057339E-01 1.131154039227E+00 7.175864382726E-01 -4.657048774517E-01 -7.323691148181E-01 -3.282554867241E-01 1.902397314550E-01 -3.156102370964E+00 -4.037290696224E+00 -1.694990375755E-01 4.908575750154E-02 9.287245452991E-01 8.769605660326E-01 3.353758376783E+00 -3.790769286070E+00 -6.816941606394E-01 -7.154305202344E-01 -3.531190498600E-01 -3.046080938312E-01 -4.468876244511E-01 -2.263799836342E-01 4.026824719633E-01 -1.669650935694E-01 -1.555994350196E+00 -3.626802682352E-01 -3.063899135094E-01 4.358352363925E-01 -1.587976543886E-01 -1.430886585605E+00 -2.050569853688E+00 -2.464441457134E+00 -3.303933721289E-01 1.474408889686E+01
 -7.924774260839E-01 1.537601369959E+00 8.270992123304E-01 4.506130011541E-01 2.274179517958E-01 1.283445117146E+00 -6.262442798194E-01 -5.142696639184E-01 -1.571781977930E-01 6.829605938514E-03 4.967228924341E-02 -1.407005681813E+00 5.912339765896E-01 -2.382162961994E-01 -4.565009807333E-01 3.054465027257E-02 1.404558678441E-01 7.191477943979E-01 3.719590877987E-01 -7.052904477434E-01 -1.222173534615E+00 9.934399236434E-01 -6.905729019694E-01 1.145794047518E+00 3.558216189099E+00 7.469486569819E-01 -7.598643362610E+00 8.379882570555E-01 1.030620076688E+00 -6.759780526400E-01 -4.448348852371E+00 3.366386913938E-01 -1.841588433906E+00 1.682450495215E+00 -9.564646008358E-01 -8.507498009494E-01 -7.523296387733E-01 -8.018188742742E-02 -7.012567369595E-01 -3.769463844367E-01 8.984298507086E-02 -6.647135852638E-01 2.475018564744E-01 2.158437922469E-01 -8.813156681968E-01 -1.105317922049E+00 2.686546670104E-02 -3.025545223248E-01 -2.805169076571E+00 -1.966617320559E+00 -5.422132037444E+00 4.963433456648E+00 -1.580406183475E+00 2.337527314323E+01