#BIOSYM hessian 1
@Type: Hessian Update
@Units
 distance: 	A
 energy: 	Kcal/Mol
#header
@natom 19

#label
L1      L2      L3      L4      L5      L6      L7      L8      L9      L10     L11     L12     L13     L14     L15     L16     L17     L18     L19

#element
Li Li Li Li Li Li Li Li Li Li Li Li Li Li Li Li Li Li Li

#matrix
57
 1.888792320744E+01
 -4.633676740622E+00 1.407739408182E+01
 2.739043144275E+00 1.277487575612E+00 1.493672086506E+01
 -2.664288199929E+00 -1.596575914435E+00 1.666981399263E+00 1.154749357934E+01
 -6.102141324034E-01 -1.328845495782E-02 -1.338272911334E+00 -1.278725271202E+00 1.896829014661E+01
 -5.628824669690E-01 -9.599334009114E-01 -1.157915983563E+00 1.468760294183E+00 -1.186065172128E+00 1.921069549566E+01
 -1.392322126615E+00 -7.446271248596E-01 3.743927037015E-01 -6.602995767915E-01 1.393087456622E+00 5.870752341454E-01 1.875463568516E+01
 -1.061625046722E+00 2.004172977672E+00 2.042283510215E+00 1.362338706000E+00 -1.039712211645E+00 -2.714837500310E+00 5.758650605248E+00 1.544420076645E+01
 -1.486522838623E+00 -2.111900928358E-01 9.546502783883E-01 3.800173123839E-01 -1.728924418252E-01 -1.074001924350E+00 -2.321137131924E+00 8.213779077146E-01 1.446175146690E+01
 -4.514746007577E+00 1.239776838951E+00 2.160808536580E+00 -1.299463159865E+00 -1.757445595764E+00 1.602736600590E+00 -4.123015980784E+00 -1.978114834163E+00 -3.709300465145E+00 1.667055584382E+01
 2.089417515937E+00 -2.461414818089E+00 6.309830010415E-02 1.364964972858E+00 -7.107802802097E+00 -4.645168187402E+00 -1.708244243206E+00 -1.300543307178E+00 -2.422790261589E+00 3.774030464591E+00 2.435942956701E+01
 6.089556575784E+00 -9.741188496633E-01 -3.182013679732E+00 -4.016393689227E-01 -5.865090572590E+00 -2.303131843434E+00 -6.635656546629E+00 -2.476809786817E+00 -3.792465541222E+00 -1.031078829000E+00 1.383195122395E+00 2.402290986991E+01
 -2.229786034790E+00 1.654564339573E+00 1.189999297805E+00 -4.930409212636E-02 -4.272242305699E-02 8.954133849312E-01 -5.582467999281E-01 -4.132355025756E-02 4.803753867396E-01 -2.990726495606E+00 -2.789034150749E+00 1.782744901249E+00 1.553337504850E+01
 2.023973766493E+00 -7.658636997061E+00 4.241123733187E-01 -1.159228331662E+00 -2.079508255025E-01 -9.932565366004E-01 -3.582918354307E-01 -1.034331856581E+00 8.067866198104E-01 -1.697352445032E+00 -5.738017458821E+00 4.681850001931E+00 4.910527816328E+00 2.094756457042E+01
 1.324605123481E+00 1.114930752380E+00 -3.380789398976E-01 -1.692768551924E+00 8.318296079400E-01 1.460869393347E+00 3.126837773156E+00 -5.496572979516E-01 8.428260050817E-01 1.880758846807E+00 1.835764317540E+00 -4.893218694349E+00 1.746885414081E+00 -6.751993539318E-01 8.375372675784E+00
 -9.806533761190E-02 -2.193325266116E-01 -1.402541348438E+00 -4.336653086729E+00 -5.038923693937E-01 7.273791027741E-01 7.951778423889E-01 -2.561808090472E-01 3.207043120591E-01 7.774784017273E-01 -1.987451175040E-01 1.144484056777E+00 3.075287463527E-01 -7.705159087950E-01 1.055021333514E+00 1.942829381773E+01
 -5.950852408500E-01 -3.476781043142E+00 -3.704674422448E+00 -3.387332484732E-01 -1.314763558061E+00 1.728637876487E+00 -1.946621830214E+00 -4.723196435848E-01 -1.059705841235E+00 8.300360838781E-01 -6.741132083875E-01 2.450719021851E-01 -5.077859791057E-01 4.722122800077E-01 3.374671988846E-01 -5.098671113935E-01 1.157861582758E+01
 -1.723342973777E+00 -2.764214650479E+00 -9.852259747252E+00 2.853441067918E+00 9.504605702291E-01 -7.070175138367E+00 5.792777788869E-01 4.698896414548E-01 -6.963431044255E-01 -1.776574290849E+00 6.032127204965E-01 2.388866929417E-01 -8.467981348907E-01 5.748783412638E-01 -5.942931009037E-01 -5.951780611042E-02 -1.681144760855E-01 2.384109085812E+01
 2.959107903757E-01 7.691712512432E-01 6.822455991115E-01 -4.407232537948E+00 -6.649468306073E-01 -2.875381818524E+00 -1.020692613142E+00 4.225834394671E-02 2.380988686061E+00 -9.025213848016E-01 -8.061519376333E-01 -1.940725963333E+00 -4.284539820925E-01 -6.992033951879E-01 -1.907217507650E+00 -6.542981662278E+00 -1.262968537207E+00 1.350911990222E+00 1.989759606193E+01
 4.066398791777E-01 1.881372465843E+00 -7.336792902474E-01 -2.125818638046E-01 -1.826983001425E+00 9.845137729054E-01 1.978539581532E+00 -8.334778530024E-01 -2.728909115837E+00 -8.635460159381E-02 8.417296215128E-02 -8.337570507601E-01 4.928328668247E-01 -5.017208176211E-01 3.075541438259E+00 -8.653293937319E-01 2.419350653342E-01 1.031691147204E+00 4.167775694457E+00 2.224896464790E+01
 1.952189943142E-01 -2.472013218903E-01 -6.391649525437E-01 -3.628309116108E+00 7.349176206800E-01 -1.005129625429E+01 3.333831276303E+00 -2.214249805101E+00 -5.882116855508E+00 6.558650888042E-01 6.686833748762E-01 1.890250914778E-03 -7.972341043887E-01 -7.341672371341E-01 3.332001650699E-01 1.390202810802E+00 -1.148284095973E+00 1.455683744805E+00 7.564322753092E-01 2.509644838907E+00 3.249122284599E+01
 4.438373234654E-01 1.496026306271E-01 -1.702859517710E+00 2.139312570833E-01 -4.024191993442E-01 -4.327649772509E-01 -2.209972760968E+00 -1.167993401600E+00 -4.248353588347E-01 8.100467518442E-01 1.329282847474E+00 1.188013079492E+00 -2.589398441558E-01 -2.384514151739E-01 -3.842849105615E-01 3.046662199482E-01 8.174019465040E-01 1.572105675100E+00 -1.701989951098E+00 1.199164719571E+00 7.037449292885E-01 2.060972825843E+01
 -1.208816888786E+00 -1.068280127834E-01 -4.098095286759E-01 -5.103347688756E-01 1.507150517621E+00 6.180128209943E-01 1.402010002729E+00 -2.303838975366E+00 3.495149040388E+00 -3.296204048517E-01 -2.870959954918E+00 -5.097230490151E-02 -2.041505556159E-01 2.971933687211E-01 -4.292919978337E-03 -1.561050910408E-01 -9.103173709588E-01 -8.649137132848E-02 1.650102165097E+00 -2.994403884438E+00 1.469159054734E+00 8.556392008910E-01 1.659142358148E+01
 1.902185602482E+00 9.133962741653E-01 -5.027454380292E-01 -1.704369449346E+00 -1.898017017283E+00 -4.868789850322E-01 3.228889707785E+00 2.661765986963E+00 -5.202626034774E+00 -8.011543657079E-01 1.674184886552E+00 -1.892191874530E+00 -4.285335617428E-01 -1.886360015074E-02 1.484770556681E+00 -6.493874241306E-01 4.470157532767E-01 1.059044682119E+00 1.464354208080E+00 3.532478841545E-01 -1.615816710634E+00 -6.689589062258E-01 1.012688035756E+00 2.091131938079E+01
 2.260573047787E-01 -1.613969671795E-01 -1.767937981370E-01 7.600425932596E-01 -5.367293880319E-01 -1.610574266499E+00 -5.335276857463E-01 -3.826757884697E-01 -1.294033763204E+00 -1.890555122873E+00 2.010140830068E+00 -1.322057451537E+00 -8.692565378195E+00 -1.938506294250E+00 -3.439995032623E-01 3.327684840178E-01 1.611260797024E+00 1.573538170679E+00 1.818503637447E-01 -1.327473461649E+00 1.062519702420E+00 1.580839052350E-01 -4.445940813767E-01 7.527311406833E-01 1.757649070263E+01
 8.196511606868E-01 -1.357258398575E+00 -7.033887646343E-01 -1.252993011555E+00 3.115994029369E-01 5.753819107565E-01 -1.816614490731E+00 -8.939126223527E+00 5.522259756075E-01 -5.384331234730E-02 -4.308504883894E+00 3.378780186330E+00 1.959855712356E-01 1.089790960043E+00 -9.729228727328E-01 3.988291635851E-01 -1.130635075935E+00 -1.511189819640E+00 1.141898973985E+00 -3.218653997702E-01 7.002446186924E-01 -1.152288223815E+00 -3.606650788593E+00 -2.228066440839E+00 -3.727951753056E+00 2.077631337670E+01
 3.784081220499E-01 -1.407136093317E+00 -1.447226927680E-01 -8.443966850973E-01 2.063013856011E+00 -8.434064884331E-01 1.533220804602E-01 -1.225368612315E+00 -7.116047782227E-01 -1.521824061168E+00 2.648302096529E+00 -1.502006407241E+00 -7.013311667915E-01 -5.987660090463E-02 -2.424239517374E+00 1.352168122477E+00 -1.206574044634E+00 1.162752272536E+00 -2.856896584148E-01 6.936187997079E-01 1.049769954562E+00 -1.454955931243E+00 -3.623038727735E+00 -2.719303570123E+00 -2.079430341251E-01 2.119987822769E+00 7.046744946194E+00
 9.984753467424E-01 1.648928017816E+00 9.007541733382E-01 -1.640082608127E+00 1.014184197266E+00 5.694792351571E-01 2.044503253145E+00 -2.531680595581E+00 5.406930854123E-01 8.507281290679E-02 -1.612959837734E+00 -1.102217193849E+00 -1.618951624575E+00 3.775045341784E-01 -1.508452975172E+00 -9.404727133103E-01 -1.891480669128E+00 -6.730333066954E-01 3.733973211328E-01 -2.930994654811E-01 -1.656000012452E+00 -5.082313624353E+00 -8.182788515462E-01 -2.958012688788E+00 -1.442618137409E+00 -6.568449524246E-01 1.054413704418E+00 1.988240485224E+01
 -1.321693094764E+00 -1.656988118883E-01 -1.419844587597E-01 4.055575076656E-01 1.883307250909E+00 1.130322971522E+00 2.800078115143E+00 1.354864394049E+00 -2.185248219975E+00 9.604459889180E-01 -5.221974119522E-02 1.469514027458E+00 8.145298264715E-02 -3.256004285117E+00 7.309381883584E-02 -2.000919714413E-01 1.527869517860E+00 -1.161526058973E+00 -8.328229556317E-01 -2.623876436823E-01 -8.123368200257E-01 -3.793064918111E+00 -3.721978415661E+00 1.378308975685E+00 -2.749777110834E+00 -1.390902930504E+00 1.728236679190E+00 -1.950418068597E-01 2.211681766726E+01
 -2.403113179850E+00 8.280125083280E-01 -7.251867855621E-01 2.647475720920E+00 -4.161766240890E-01 2.198566461401E-01 -1.764063912494E+00 8.789802804769E-01 -9.912869318588E-01 5.526659987133E-01 -1.702074020283E+00 1.365559213412E+00 5.894144942083E-01 -8.389046186145E-01 -5.818086370148E+00 -2.444567477620E+00 8.475989524838E-01 1.386425917734E+00 2.235637959129E+00 -3.387051893156E+00 -1.966423981704E+00 -2.561330944104E+00 9.981674297590E-01 -1.182040084653E+00 -2.278550040120E+00 4.078538002183E+00 2.721871015609E-01 3.070415052658E+00 -2.933185367885E+00 1.492581192780E+01
 -3.120126156347E-01 -1.600508753635E+00 -8.681031913654E-01 6.654230465939E-01 -7.326530393141E-01 -1.774779754505E+00 -1.895299379969E+00 1.046506898672E+00 3.589825112249E-01 -7.981863046943E-01 1.474523386894E+00 1.145436574004E+00 2.982282043836E-01 2.508776173592E+00 -1.221144601317E+00 5.529448905161E-01 1.867900682429E+00 9.798386010689E-01 1.206736054773E+00 7.671556033408E-01 1.252119642032E+00 4.971727759174E-01 -1.046542534309E+00 1.969674850965E+00 -6.276005676751E-01 4.017780083294E-01 1.602916107053E+00 -5.938494944299E+00 -2.702816284853E-01 -2.494253542947E+00 2.542012724470E+01
 -3.527130115408E-01 -2.362601184490E+00 -4.404089067306E-01 6.108739724580E-01 1.079066275996E+00 -1.952021210949E+00 -1.266568418711E+00 -3.536906579050E-01 1.073535912333E+00 -1.662538587821E+00 1.159861590679E+00 7.406095335350E-01 -3.452765843861E-03 3.041272377555E+00 -7.008329905944E-01 1.589748394254E+00 -5.447793402212E-01 -2.644312133963E-01 1.305864485604E+00 -1.945800509182E-01 1.575160378039E+00 5.827964239627E-01 2.453815778722E+00 -4.418313122600E-01 7.153079899510E-01 -1.691971146317E+00 -5.053834994563E-01 -2.050225016595E+00 -2.809877533235E+00 -1.497176315519E+00 1.478150723890E+01 2.200876199878E+01
 1.173246461369E+00 -5.197559871527E-01 -4.222446049342E-01 -3.155265175518E+00 1.587300768470E+00 -1.157185226645E+00 2.830967208292E+00 -6.166765361449E-01 2.189988135712E-01 -1.954069500600E-01 5.341146040616E-01 1.828787875860E-01 -1.328460191259E+00 1.338566489988E-01 1.078982150335E+00 -7.071235558264E-02 7.188471107284E-01 -1.119279464869E-01 1.596422987561E+00 2.420982870322E+00 2.830628006542E+00 1.216453472940E+00 -1.000143197672E+00 -2.458364635796E-01 1.670701431905E+00 -3.213165874018E-01 -4.430208927295E-02 -1.720446383998E+00 5.571266552352E-01 -1.650917719713E+00 5.490515256213E+00 1.867499989966E+00 1.176124867426E+01
 -1.080844665857E+00 -8.156141446585E-01 -7.783357497451E-01 1.460375954440E-01 -2.025121640597E-01 1.099749940470E+00 3.715066678160E-01 8.812350197936E-01 1.060091483460E+00 1.320928848130E-02 1.183121614049E-01 -9.651609032893E-01 -1.950748011267E-01 1.745539627810E+00 1.711572686180E-01 -2.092085189506E-01 -4.034106976361E-01 -2.318624702178E-01 -1.294765210281E-01 -5.886257050983E-01 -8.957008610547E-01 1.898079753358E+00 6.756117247161E-01 2.106644755018E-01 8.375343108436E-01 -1.722910799440E+00 -2.637920318106E-01 -7.815386584686E+00 2.033350418568E+00 -3.267478699485E+00 2.956859240398E+00 4.419392029159E+00 -1.959297819088E-02 2.113371545687E+01
 -1.243916337859E+00 -2.015857409780E+00 2.625906532077E+00 -4.621419930092E-01 9.029668003134E-01 2.581849692757E-01 2.585429606150E+00 1.192426923096E-01 9.415153439227E-01 -6.208847864613E-01 3.799133562428E-01 -1.457911778831E+00 8.101394074516E-01 -7.530883527896E-01 -1.935802951496E+00 -3.747982990272E-01 2.583715006724E-01 -1.030203051700E+00 7.857532950522E-01 3.748706378933E-01 -2.866064881359E-01 -7.991220455896E-01 -1.687988691698E-02 -1.946026855773E+00 -1.616595526016E+00 1.729800302909E+00 1.942984666911E+00 3.516804315739E+00 -4.151473948761E+00 4.397590201416E-01 -9.653488368616E-01 -1.602317161633E+00 3.378913227243E-01 5.860000837153E-01 8.922803639867E+00
 -3.366413111482E-01 1.741743442177E+00 1.329566886315E+00 -4.710862318366E-01 -1.130698688683E+00 -1.573255743725E+00 -1.484467379765E-01 7.292507489665E-01 9.267636074885E-02 2.166703231018E+00 -7.847641366718E-01 -2.056705779650E+00 -9.106042819084E-01 -5.028941962714E-01 -1.198786289335E+00 4.534912753912E-01 -2.051664865020E+00 -2.599292662693E-01 -8.884479782424E-01 -1.115225403929E+00 2.920311089738E-02 1.526368040359E+00 9.776638087465E-01 -1.028917299247E+00 -2.203332288091E+00 -3.406805601654E-01 1.236822531880E+00 2.407675970749E-01 7.935019992739E-01 -1.183658865671E+00 2.936651401013E+00 9.496722497481E-01 1.891892379640E-01 3.984280876613E+00 2.307275841371E-01 7.427646244388E+00
 1.268595412211E+00 -6.249879929575E-01 1.775209892296E+00 -1.945135718835E+00 -3.382304395355E-01 -1.537422278602E+00 1.901405032713E-01 -7.370323083068E-02 -1.828138651462E-01 6.745137501475E-01 -1.368813172891E+00 1.548199840692E+00 -4.748432661521E-01 -3.077799781519E-02 -4.289503804798E-01 -1.625717187613E+00 -6.437040630168E-01 2.308031318665E+00 -8.917019156846E-01 -7.110722791317E-01 8.507839060012E-01 1.476132765291E+00 -3.636558457169E-01 -1.213893708060E+00 -1.406904228383E+00 -7.493840131026E-01 1.914432004485E+00 1.503082780827E+00 -2.232871370202E+00 -2.043240220245E+00 -3.585673244568E+00 -3.965718113827E+00 -1.043802804402E+00 -2.112226314653E+00 3.407035401541E+00 -1.799259376211E+00 2.169298572183E+01
 1.214069201792E+00 1.278640550345E+00 -1.068353237411E+00 -8.166873991249E-01 -2.056688021944E+00 -3.981366004237E-01 1.593214323842E-02 1.055807706524E+00 -6.111506519219E-01 -2.696198591855E-01 -7.504437247985E-01 9.826562757604E-01 6.724590189568E-01 1.607606313483E+00 2.816374577050E-02 -1.459950054154E+00 -2.679828924182E+00 1.989625529237E+00 -6.563255511623E-02 8.859317303945E-01 1.418074459303E+00 -5.067639053222E-02 -1.661555589228E+00 1.264121098670E+00 -8.377225381977E-01 8.207122950533E-01 1.431470689613E+00 -4.728409067482E-01 -1.110791770870E+00 -2.208062380912E+00 -1.650291981644E-01 -1.568065919008E+00 -6.941188505697E-01 3.270882323974E-01 -5.262745607367E-01 2.799500118618E+00 -3.349542567732E+00 6.682578945467E+00
 -6.489769462933E-01 1.735967578373E-02 -1.518398789059E+00 6.582419216570E-01 6.140127914457E-01 1.627234056134E+00 -1.637623549604E+00 -1.726591018825E-01 -8.865885374106E-02 -1.200261399120E-01 -7.870643672551E-01 3.444767777558E-01 4.751028293545E-01 -2.726753684986E-01 5.390707429585E-02 3.197218025200E+00 1.019498227873E+00 -5.583182114586E+00 -5.576663950655E-01 -9.196578403601E-01 -2.140348331866E+00 -5.804664621633E-01 1.235221071393E+00 8.045724233630E-01 1.502319239743E+00 1.139228708291E-01 -3.665895335105E-01 -4.294087481632E-01 -1.180451441443E+00 -3.090944172260E-01 -1.860670599791E+00 3.932236926031E-01 -3.807146210069E+00 3.588965853150E-01 -1.869986194674E+00 4.059460783241E-01 9.130784459843E-01 -1.349777244239E+00 1.447223711414E+01
 -7.854838502512E-01 -6.725977746879E-01 7.031263641881E-01 1.453865561218E+00 1.227057956986E+00 -1.315143250401E+00 -1.453798803357E+00 -4.519117478774E-01 1.226939101953E+00 -1.259615921997E-01 6.645067300202E-01 4.035202119197E-01 1.700382828941E+00 1.700481768589E+00 2.131974173347E+00 -2.364115748161E+00 -4.936394103927E-02 -1.905454615042E+00 -2.574036855416E+00 -1.361604469683E+00 3.236034439549E+00 -5.356755885075E-01 2.960250116363E+00 8.260718599597E-01 2.591646236604E-01 3.287275270054E-01 -2.684359530616E+00 -1.564745851861E+00 1.982331067211E+00 8.956581495573E-01 -4.494325586496E-02 1.080781322523E+00 -1.961390679898E-01 1.392428121654E-02 -1.281833357563E+00 -1.232978543987E+00 -7.030008078027E-01 -2.314719758386E+00 -4.847690430947E-01 1.047097093807E+01
 -3.267810970311E-01 -1.797270101873E+00 -2.527978111040E+00 3.745849846741E-03 -1.190706345433E+00 -2.666407321551E-01 -1.137501334409E+00 -2.549252576515E-01 9.814786445359E-01 1.947158839505E-01 -6.254126598161E-01 7.052970645826E-01 2.590645789785E+00 -6.230315568836E-01 1.738716156017E-01 1.357951892138E-02 -3.230487606827E-02 1.618309010176E+00 4.190417867121E-01 4.300911615712E-01 -1.000804341463E+00 -1.275358983042E+00 -1.210372133450E+00 -1.181668945995E+00 -4.151228363533E-01 1.498122488970E+00 5.540880776375E-01 -8.415976076838E-01 1.679953388051E+00 7.467743633228E-02 -2.398046228191E+00 -9.713301196935E-01 -6.888737593852E-02 -9.615654701308E-01 1.339548696692E+00 2.265940269647E-01 -4.654061149253E-01 6.938267990177E-01 1.559642349931E-01 -1.872420332645E+00 3.092995555382E+01
 1.072390805734E+00 -6.501969573181E-01 1.419989994144E+00 -6.259229337267E-01 3.303680851750E-01 2.219467745454E+00 -2.655702242316E+00 -7.932450714977E-01 8.563002103079E-01 -3.338682935059E-01 -2.745304111846E-01 -9.291652839056E-01 7.890041511954E-01 -7.414030639638E-01 -2.189283829680E+00 -3.155424620920E+00 8.341201796374E-01 -1.188242050797E+00 2.224879797701E+00 -2.976652820655E+00 -4.828962480090E+00 3.487374592163E-01 5.522640493721E-01 2.568764154858E+00 -1.206694986588E+00 -2.923117929449E-01 -1.651120188348E+00 2.722461302620E+00 9.352517193384E-01 1.885625988651E+00 2.907596946089E-02 1.153881769845E+00 7.445754353368E-01 1.485802851887E+00 6.570549572282E-01 -4.282047386516E-01 -2.187152977501E-01 -2.615060502046E+00 4.576649128719E-02 -2.072721894380E+00 4.500064974230E-01 1.650442076485E+01
 2.499054636355E+00 3.240287089589E-01 -7.387268947212E-01 -2.298585018733E+00 -4.418458870180E-01 -1.132388374494E+00 1.359185819476E+00 -7.298984020847E-01 2.202392042233E-01 -4.506383530457E-01 -8.882055923459E-01 2.804371737891E+00 -4.396792882703E-01 3.289889755810E-01 -6.620672954731E-01 -7.474049220142E-03 1.126373947950E+00 -1.226618706795E+00 2.553649868466E-01 2.838102271940E+00 -1.114096260643E+00 -9.567940755862E-01 -7.423238904430E-01 -1.061907085554E+00 3.134979686571E-02 5.777343525826E-01 1.693426168952E+00 8.586814194199E-02 3.479521150152E-01 1.204694319203E-01 -4.952057086653E-01 -3.148157516075E-01 -1.740269905150E-03 -9.949387697350E-01 -1.363555165705E+00 5.483524373005E-01 -1.527681937871E+00 1.616868452686E+00 1.622506161080E+00 -3.181263231937E+00 2.719757916853E+00 -2.635286937371E-01 1.621059836016E+01
 1.332837126396E+00 8.311358389963E-01 2.270611248632E-01 -4.974838476251E-01 -7.296586325097E-01 -2.079815312679E+00 -1.686050127335E+00 -9.282001548058E-01 6.379587627606E-01 1.677970821389E+00 4.171954219380E-02 6.005708750904E-01 1.386646632877E+00 1.492147431805E+00 1.281482057186E+00 3.725296482652E-01 1.217074125093E+00 1.686249752383E+00 3.609695727962E-01 -2.256081148442E+00 4.648373970395E+00 9.789492460715E-02 -1.459251257649E+00 -5.148525276884E-01 -1.590852819490E+00 4.158126460878E-01 6.124434099042E-01 -4.374993467356E+00 3.772876429095E-02 -3.351277115821E+00 8.467419450576E-02 -6.804811969765E-01 -6.914027468301E-01 -7.368608091785E-01 -1.015016262450E-01 1.138417511267E+00 1.609810616240E-01 2.703889328436E+00 -1.391117775006E+00 2.448409877103E-01 1.768477134079E+00 -5.073163676385E+00 3.782252627986E+00 1.492955096628E+01
 -7.765377482168E-01 6.698221627227E-01 1.484962873777E+00 4.633951946999E-01 4.352081750758E-01 -1.364709508579E-01 1.673450211466E-01 8.211364999150E-01 9.857391127681E-01 2.842377671487E-01 5.521357434808E-03 -1.075039762131E+00 -2.005996564006E-01 -4.561226267640E-01 -1.226751426530E+00 -8.179394847850E-01 -1.016435330605E+00 -2.852549370456E+00 -1.479373293751E+00 2.632923120829E+00 -6.753664734835E+00 3.114909928465E-01 -3.871544298440E+00 -4.143539131781E+00 -8.512741472035E-01 -1.264843735456E+00 4.322683593641E-01 7.348685159180E-01 4.605756261813E-02 -1.953554701866E-01 1.139255612786E+00 -1.808835491805E-01 1.438209465143E-01 -1.718847329622E-01 6.314753648690E-01 1.805458327333E+00 1.811845109322E-01 -1.349945239907E+00 -1.450318626163E+00 -1.767141523182E-01 -1.908226857486E+00 5.210848885714E-01 2.968383408410E+00 -9.366676317589E-01 1.819954445838E+01
 -1.035387526318E+00 2.926246305263E-01 8.242829726662E-01 1.554665063967E+00 -7.704579912166E-01 1.513689414313E+00 -4.043587302594E-01 5.367167526368E-01 -4.190621729723E-02 8.273574249985E-01 2.983044233220E-01 -3.192964048236E-01 4.431290740026E-01 -1.657569698206E+00 5.081328300950E-01 5.041312302777E-01 -4.432944436071E-01 -5.848977951739E-02 -6.412755458099E-01 5.807306127710E-01 -2.994332111858E-01 -1.778381666468E+00 -2.292967668503E+00 8.224229639625E-01 -4.586561002484E-01 -1.550996620928E-01 -1.216234444611E+00 9.800006863683E-01 -1.259987361842E+00 1.982495801475E+00 -1.334997054978E+01 -5.498260158452E+00 -3.867532883316E+00 -1.437823774961E+00 1.560510692641E+00 -1.957215581644E+00 1.866106677768E+00 3.415516593566E-01 9.210940003423E-01 3.575305222765E-01 9.224385266108E-01 -6.848662062782E-01 -4.137377926415E-01 2.559192970377E+00 9.921829840778E-02 1.928285991950E+01
 -5.079871185887E-01 -2.989557529543E+00 3.879337093029E-01 5.716756534014E-01 6.945053937105E-01 -3.424225099643E-01 1.359356864355E+00 1.381232650391E+00 -1.373596561746E+00 -1.868657869625E+00 8.465237271100E-01 -8.329655830410E-01 -1.537509513440E+00 -3.016410724464E-01 -1.556626562790E+00 -3.127262208390E-01 -1.794568197372E-01 -1.324063070183E+00 1.647199174363E+00 8.444073329324E-01 -6.841837547795E-01 -8.716401530787E-01 -2.967338200301E+00 -7.407940827858E-01 1.568985259152E+00 1.643793784764E+00 1.033451473264E+00 -1.221496707913E+00 -7.261260445478E-01 1.248638721896E+00 -1.455236567353E+00 8.000502643102E-01 -9.958797326128E-01 -4.936367039204E-01 5.305290826700E-01 -3.313684667572E+00 3.195542093047E-01 -1.689118912969E+00 5.903774772955E-01 -5.423314707483E-01 6.667760575924E-01 3.965697546555E-01 2.335174251138E+00 -2.346926148787E+00 1.998649480674E+00 -4.371557186408E+00 1.115962285624E+01
 -1.408728673294E+00 -4.425019191203E-01 -1.436943617186E+00 1.158993172373E+00 1.183461503707E+00 -7.960393842608E-01 -3.357721427027E+00 -1.369423840307E+00 1.729832343574E+00 -2.878185016615E-01 -4.409157055931E-01 2.618594187741E+00 -1.668883569878E-01 6.749829840781E-01 -3.445674993045E-01 -5.937888535604E-03 2.391054790993E-01 1.926670306690E-01 -1.734054543269E+00 1.116919204190E+00 2.486092557087E+00 3.053029599899E+00 4.156395102646E-01 -2.850648825782E+00 4.808324127641E-01 -1.114745606770E+00 2.912064946749E-01 6.289566341123E-01 -1.245507243353E-01 -2.959965255636E+00 -2.895876936347E+00 -4.435306052511E-01 -4.098501595680E-02 2.969131421468E-01 6.572602555444E-01 -5.984364844746E-01 1.268105742949E+00 6.722130256084E-01 1.555966836920E+00 1.444600958021E+00 -1.404684825686E+00 -1.921763569390E+00 -1.908762103679E+00 6.249700707259E-01 -2.495411917460E+00 4.662467410913E-01 1.112012420376E+00 6.767532921388E+00
 -1.906907000933E+00 2.444832641740E+00 2.396871628915E+00 2.629796809696E+00 2.096264523525E+00 3.928150292178E+00 2.845809991605E+00 1.642089134893E+00 -1.614554734151E+00 -3.774624261929E-01 -1.179221086201E+00 -3.361082705474E+00 -3.834296480868E-03 -1.494989729868E+00 2.066717181668E-01 -3.020338292491E+00 -1.912427410345E+00 -1.902998074132E+00 -2.838402829394E+00 -5.050026812013E+00 -2.874117818755E+00 -3.548265318274E+00 -1.040306781177E+00 2.278146276787E+00 -4.912622381736E-01 -1.867982300091E+00 -1.795860698108E+00 6.034952005912E+00 2.449661889328E+00 2.056256064277E+00 -6.711796816901E+00 -8.611342805770E+00 -2.477067322240E+00 -2.231625471435E+00 5.304345287065E-01 -2.003985769872E+00 -4.470374809851E+00 8.844792120372E-01 -5.430025143719E+00 -9.295648343374E-01 -5.067204171323E+00 3.752512397831E+00 -1.074613539289E+01 -3.753942910134E+00 5.560804990606E+00 -4.059884119516E+00 2.021427928275E+00 -7.915438805337E-02 5.539498710600E+01
 -5.842146633067E+00 1.419146477499E+01 8.767634967107E+00 5.295571612376E+00 1.005208287849E+01 2.063523529912E+01 1.819787663335E+00 -6.321009947607E+00 -7.507157615339E+00 -4.780152748351E+00 -4.033646935640E+00 -1.503697457462E+01 -9.880288825119E+00 -1.337515305437E+01 -2.943435496970E+00 -1.108725005336E+01 -2.135478122396E+00 -1.185197969512E+01 -8.090154439786E+00 -1.971216533838E+01 -2.367171649864E+01 1.504185332100E+00 1.497146799693E+01 7.429753234052E+00 8.297677536078E+00 -1.161163393760E+01 -1.114040194189E+01 4.065271714210E+01 -1.925862419004E+00 1.391219906872E+01 -6.870826002449E+00 -2.185709385317E+01 -1.228793207040E+01 3.877413218569E+00 -1.582624851846E+00 1.022712264178E+00 2.425483276523E+00 -2.409051160726E+01 -9.258634004988E-01 2.559717565409E+00 -6.976798855655E+01 6.909623897333E+01 -2.389454436260E+01 -7.119399026010E+01 2.609724194387E+01 6.308332977832E+00 -1.044073515899E+01 -8.590887597613E+00 7.923191993576E+01 1.085481409560E+03
 -1.235225782584E+00 1.478369203616E+00 1.599774573369E+00 1.455816234946E+00 2.022352369664E-01 2.352076022059E-01 1.624479998782E-01 5.567191599351E-01 -2.216071354575E-01 1.244622119933E+00 9.183107253360E-01 -8.184691106666E-01 2.519784546337E-01 -3.025757521353E+00 7.734308524558E-01 1.426419507441E+00 -1.481385545984E+00 1.068537125704E+00 -1.489174351664E+00 1.174594792667E+00 8.631070688121E-01 -8.600096437399E-01 5.158164512813E-01 2.466401710348E+00 -1.328238011549E+00 -8.758162742053E-01 -5.135451866157E-01 7.168683341225E-01 1.029899009061E+00 1.958256322851E+00 -6.221150323132E+00 -7.808543899081E+00 -5.901496010342E+00 -2.586163217355E+00 5.791907714788E-01 -2.041447173208E+00 -4.079038983550E+00 2.073505324570E+00 -6.192192624367E+00 -2.662825968225E-01 9.049154850601E+00 -7.544499354853E+00 5.038913226206E+00 2.352606965850E+00 -3.521668025588E+00 5.227440887308E+00 -6.728483844969E-01 -2.559032245174E+00 4.521518910399E+00 -2.951906290285E+01 2.942285323640E+01
 -1.130536194741E+01 8.093713128246E+00 -3.347986404858E+00 9.841013920349E-01 7.219122752811E+00 2.614743762061E-01 -8.577290889549E+00 5.050166589064E-01 4.604413667430E+00 -4.580231441074E+00 -1.016901796374E+01 -3.539167978016E+00 1.177673906499E+00 -5.047313349161E+00 -4.459613009660E+00 -7.604244921753E+00 1.311955840210E+00 -1.216643249573E+00 2.830735188690E-01 -6.087232969688E+00 -7.158859095326E+00 -7.910260855225E+00 7.886608421113E-01 -4.544808915019E+00 -6.849575612472E+00 4.976733464062E+00 6.141396991047E-01 4.104605701907E+00 1.151454038333E+00 6.980636377796E+00 -2.590423736886E+00 -6.376314219426E+00 -3.399840691581E+00 -1.043114317982E+01 -1.634438222975E+00 1.646584015184E+00 3.015978782141E+00 2.526395342781E-01 1.227819621132E+00 -5.438891260446E-01 -1.759266082663E+00 6.039158662553E+00 -3.910365603702E+00 -2.229357101000E+00 1.773778568499E+00 -6.773045058254E-01 -1.102505069201E+00 2.919504536345E-01 3.226242432880E+01 6.407418294320E+01 2.954657916806E+00 8.011165703349E+01
 -1.494527427029E+00 1.153066672650E+01 7.460720129989E+00 6.615771398564E+00 -4.997298414632E-01 2.459009282244E+01 -3.118602377445E+00 -8.359743412496E+00 -4.626049549976E+00 -5.738841040180E+00 -1.456685268213E+01 -1.186516488405E+01 -1.392448514088E+01 -1.573923525332E+01 -5.957817568528E+00 -6.554290635435E+00 2.343215703193E-01 -1.092388646165E+01 -8.039093558294E+00 -2.506241008695E+01 -2.494501557400E+01 1.498080456586E+00 1.710777506262E+01 5.411957722986E+00 1.477512223257E+01 -1.178975951018E+01 -1.289335970709E+01 3.654723762076E+01 -7.595858740753E+00 1.503870592114E+01 -6.981133544548E+00 -1.598049868064E+01 -8.016868632279E+00 9.839916240269E-02 -5.636878973841E+00 4.598605812415E+00 2.239692581338E+00 -1.925079827264E+01 7.694495612023E-01 -1.083456159309E+00 -5.080886844032E+01 5.300325018166E+01 -1.680886472934E+01 -6.137764821572E+01 2.161723529792E+01 3.576814697695E+00 -6.240342528594E+00 -5.380398612517E+00 6.543916495059E+01 9.126282776534E+02 -2.351566269951E+01 5.642489443258E+01 8.308003832901E+02
 -7.811906690047E+00 1.210014668115E+00 -2.004041651018E+00 5.169170389656E-01 7.824919340025E+00 1.498450675427E+00 5.391773123868E+00 2.302358551406E+00 -1.616252575363E+00 -1.312213170608E+00 -1.591810962645E+00 -5.848332811696E+00 -2.326732335781E+00 -3.085661131719E+00 1.526647707766E+00 -6.873373177214E-01 -1.300252906484E-01 -1.219539181921E+00 -4.043455405623E-01 -9.368421356576E+00 -6.988790903353E+00 -4.610862766401E+00 -2.566543851013E-02 3.184122231477E-01 4.703104285012E+00 -4.229767579715E+00 -3.565232310584E+00 1.719648035485E+00 1.383892647382E+00 -4.768290766748E+00 -3.646239078170E+00 -2.229018559415E+00 -1.416645836007E-01 1.787917901298E+00 1.725410132079E+00 -2.924554404897E-01 -2.829214458273E+00 -2.000391083702E+00 2.813404158416E+00 -1.594137465939E+00 -7.552014985784E-01 2.565781329033E+00 -3.008685689187E+00 -8.235529911406E-01 3.019153212939E+00 -2.610184823961E-02 3.803338490651E+00 -4.239300198191E-01 1.162447792684E+01 3.952962692292E+01 -3.619690919811E-01 1.581813754521E+01 3.380632616810E+01 3.123410118006E+01