#BIOSYM hessian 1
@Type: Hessian Update
@Units
 distance: 	A
 energy: 	Kcal/Mol
#header
@natom 19

#label
L1      L2      L3      L4      L5      L6      L7      L8      L9      L10     L11     L12     L13     L14     L15     L16     L17     L18     L19

#element
Li Li Li Li Li Li Li Li Li Li Li Li Li Li Li Li Li Li Li

#matrix
57
 5.527257116236E+01
 1.016351892135E+01 8.640389883027E+01
 -6.810515602932E+00 -2.291443798346E+01 5.358398254540E+01
 -8.216335046326E+00 1.476337026885E+00 5.700807020121E+00 5.002880221766E+01
 2.790110557349E+00 -8.202119946557E+00 6.023017343838E+00 1.693137026059E+01 6.547996827112E+01
 4.082929281085E+00 2.997223277941E+00 -9.285820459941E+00 -2.235563029024E+01 -4.747250314695E+01 7.714205443374E+01
 -2.855708408091E+00 -6.353792041105E+00 5.491502778729E+00 8.120277885168E-01 1.509433751777E+00 -8.880499734086E-01 1.448251858072E+01
 -2.234028306437E+00 -1.431342987398E+01 1.737832572423E+01 -6.870495272983E-01 3.798258680862E+00 -2.836288302926E+00 1.158316880179E+00 1.733003340508E+01
 7.043053048133E+00 1.893757253747E+01 -2.391825864823E+01 1.014453595377E+00 -4.093542155447E+00 5.895005696544E+00 -6.977129698868E+00 -8.972524492295E+00 4.475202874452E+01
 3.602439956817E-01 -1.476240372038E+00 1.442801417697E+00 -9.631569725559E-02 -2.247625656025E-01 1.237173762253E+00 9.086235316613E-01 4.143946175205E-01 9.080031917476E-01 3.224868207599E+01
 -3.497230022833E+00 1.898619221872E-01 -1.788555827790E+00 -3.147169179484E-02 2.458809191044E+00 -2.980904136266E+00 1.223045888211E+00 -1.555129329426E+00 1.701002174879E+00 -1.331435789405E+01 5.730242859695E+01
 8.280690633158E+00 2.402354281168E+00 -1.842440175157E+00 6.749681385624E-01 6.739334340129E+00 -6.424027120772E+00 1.867535858891E+00 -8.170806368486E-01 -3.819738154321E+00 -2.578718642294E+01 9.021843138832E+00 2.762241187341E+02
 5.597402322613E+00 -1.302191163636E-01 3.413261629494E+00 -1.862238547013E+01 2.130737926131E+01 -1.617973160651E+01 -2.447494069236E+00 3.076350445221E+00 -1.415257991973E+00 -2.517130349576E+00 2.874662707765E+00 2.586810907889E+01 1.675340847279E+02
 -4.387649346691E+00 -1.196553814888E+01 1.009063041082E-01 2.332967121903E+00 -1.814747893432E+01 2.004660633350E+01 -9.466056347621E-01 -5.715972976274E-01 -2.103752052808E+00 -3.615926101427E+00 -4.774974905313E-02 1.661737014073E+01 3.075525955141E+01 9.572486466657E+01
 2.149670513971E-01 8.682043648848E+00 -1.565578578416E+01 -4.338732087226E+00 1.154625243173E+01 -1.820854431569E+01 -2.683209701158E-01 -2.070492527272E+00 3.240508855177E-01 1.270817349954E+00 1.709754155463E-01 -2.190546029418E+00 -8.317993939748E+00 -3.293513989303E+01 5.033323965928E+01
 -6.360635287219E-01 4.894829663834E+00 -7.870527843372E-01 8.860301516371E-01 7.867352666729E-01 2.954688181180E+00 -1.726366259286E+00 1.806293747124E+00 4.735200342454E+00 -6.699570440706E-01 -9.119847869046E-01 -2.050109640024E-01 -7.885275734153E-01 3.119393379388E+00 -1.052489425541E+00 9.712613558857E+01
 1.124402810436E+00 -2.711622737612E+00 1.825316889762E+00 -7.059540519787E+00 -1.350638229065E+01 1.280188288900E+00 -2.571575486250E+00 1.596381018160E+00 -5.789593242031E-01 3.166081641888E+00 1.613929265747E+00 -7.792821463587E+00 2.404337185172E+00 -1.802776203166E+00 1.462062271146E+00 -6.163224335911E+01 8.464772715859E+01
 -1.089132436116E+01 2.027288104194E+00 4.816655890837E-01 4.259632259877E+00 -2.670649875304E+00 -5.411265227309E+00 1.972799722807E+00 -4.623242268177E-01 1.241788120286E+00 -4.549758313705E+00 -5.678777266585E+00 2.936045248022E+01 -8.589420672320E+00 2.201780974358E+00 2.162146082350E+00 -4.784063705204E+00 -1.411762676986E+01 6.383397471116E+01
 -3.147302628455E+00 2.943253947851E+00 1.014771273720E-01 8.136004960965E-01 -1.171832794658E+01 9.188573968676E+00 -2.853273325519E+00 2.567285627894E+00 -6.202566266950E+00 -1.818350566626E+00 1.194763989359E+00 -5.624782312615E+00 9.390245213674E+00 1.214446117004E+01 -4.094872541976E+00 -3.798440655454E+00 6.485885745140E+00 -9.183825515819E+00 5.183462223868E+01
 3.699812183126E+00 -1.870254544260E+00 2.199959816069E+00 -2.100252627644E+00 -1.869103159027E+00 -5.945389616463E-01 1.814053471573E+00 -1.429213561758E+00 -6.891066817179E+00 -1.514275015691E-01 1.184885521253E+00 3.073993089847E+00 -8.280877653561E-01 6.225530254621E+00 -8.579576058504E-01 -1.212257602244E+00 6.055326424896E+00 -4.116198509193E+00 1.079240850159E+01 5.546569353616E+01
 -3.452363481512E+00 2.596824020980E+00 -3.689703571758E-01 -5.273082407193E-01 -7.477370349787E+00 1.053318897751E+01 -2.788232483174E-01 -4.226339097754E-01 -2.901093816687E+00 -3.782295361419E-02 2.842401002627E+00 -3.719815057164E-01 -3.502531029813E+00 -1.934009299587E+00 8.107209717706E-01 9.940125332916E-01 -2.461871631690E-01 -1.031964353945E-02 7.371549506263E+00 -2.636328200145E+01 8.643451269699E+01
 -3.833847746801E+01 -2.658747252259E+01 1.190558740517E+00 4.399076079846E+00 4.723318753392E-01 -3.917216329415E+00 -4.184049792642E+00 -2.192457565073E-01 -8.223602029919E+00 -3.422024242081E-01 1.589324857549E+00 -2.728171660217E+00 2.827564263036E+00 2.408620844641E+01 -1.140119132957E+01 -2.419209545840E+00 2.805606101069E+00 8.415397792021E+00 -2.196707930779E+00 1.343446272359E-01 -3.348651253761E-01 8.199051818714E+01
 -2.774697840762E+01 -2.021475130036E+01 3.275832162593E+00 -8.673035658660E-01 -3.873842416981E+00 2.791651188750E+00 -2.564213835819E-01 1.028441766386E+00 -2.565298228475E+00 3.142111020089E-01 1.939571974787E+00 -7.670028549014E+00 -1.178361548225E+00 -3.844810460240E-01 9.643269921913E-01 -3.390645289433E+00 -3.764349341319E+00 1.206721043383E+01 5.233990503685E+00 -1.545197554931E+01 -3.009043751807E+00 1.708861068160E+01 5.999309290922E+01
 -2.626341340812E+00 -2.991152239085E-01 4.807810091958E-01 1.159599771966E+00 1.935641166823E+00 1.699830137677E+00 -5.519862420385E+00 5.085538427634E-01 -4.513862868925E+00 -6.851288586919E-01 1.612416309423E-01 -5.255348565159E-02 2.488849668357E+00 -1.184949984514E+00 -3.084132511679E+00 2.825950804241E+00 7.580210613649E-01 -1.872277869753E+00 -4.306711973269E+00 2.786781380032E+00 3.276033683212E+00 5.814277607491E+00 -8.884166772587E-01 8.890315604406E+01
 1.555611782434E+00 1.849914107772E+00 -5.694311889095E-01 -9.359610915841E-01 -9.263681545821E-01 -2.283605822172E+00 -6.870285716644E-01 -1.633569257702E+00 -2.141865916165E-01 -1.068056471736E+00 1.584059566059E+00 -8.261783236438E+00 -7.547959754102E+00 3.049941794354E+00 3.043134397871E+00 -7.422367616460E+00 8.902468489598E+00 -4.706817410789E+00 3.716114179033E+00 2.483844071788E+00 3.408165103037E-01 -8.321906075191E-01 -9.866945671039E-01 -3.439394707620E+00 3.238762957593E+01
 1.599315885631E+00 4.984231118174E+00 1.261199437650E+00 4.068815352800E+00 -7.296411799031E-01 -3.258510064044E+00 1.156994928205E+00 -1.472079477551E-03 5.158549848111E+00 -2.212588643378E+00 -4.628481200371E+00 1.109616544633E+01 9.174754571171E-01 -1.160894221657E+01 -3.721208386012E+00 1.086311889094E+01 -3.356897958583E+01 3.196062859490E+01 -3.790522129238E+00 -7.253488054828E+00 2.368659953716E+00 -5.185850213349E+00 4.976267087687E+00 9.006759203694E-01 3.104552985813E+00 7.958079362781E+01
 5.145615568748E+00 -4.840004673060E+00 1.068951647268E-02 -6.725631797513E+00 8.031503294980E-01 -4.078538496869E+00 -5.416125399853E-01 1.411348590288E+00 -1.645196428463E+00 3.224499314993E+00 5.543959199446E+00 -1.016011254952E+01 1.042115701771E+01 -8.464668370509E+00 -3.498706026097E+00 -2.145149757041E+01 3.727253827554E+01 -3.344301768542E+01 9.697228595418E+00 7.956851805793E+00 -1.471367659198E+00 -2.117077538121E+00 -8.374856374000E+00 -8.403143136829E-01 -3.233015407015E-01 -2.508849771371E+01 5.317000257024E+01
 -9.979170238348E-01 6.119455896176E-01 -3.585273753349E+00 2.461303391004E+00 -1.524879863982E+00 -1.585758264886E+00 4.493861808474E-01 -1.699829712754E+00 -1.168277136665E+00 -1.539368190150E+00 1.168481104340E+00 4.982753789219E-01 -5.417961083631E-01 1.620550304113E+00 -3.388317489849E+00 -5.398418981146E+00 -4.317097446228E+00 4.715799276087E+00 2.236749530846E+00 -2.054689908878E+00 4.855848035553E+00 -1.708266587893E+00 1.204153010897E+00 -8.112246957368E-01 -4.736966443295E-01 2.687156786849E+00 -2.445124162442E+00 2.545434378336E+01
 -2.057151435063E+00 -5.633706526018E+00 -3.669769111383E-01 -2.508965247488E+00 8.912047920695E-01 -3.400434317850E+00 1.875560688477E+00 3.811772284502E-01 -4.984751382415E+00 -1.112028917261E+00 1.962698686287E+00 1.051412579200E+01 -6.875447231202E+00 2.323515890254E-02 8.865583317239E-01 -6.777030618639E+00 4.757216556769E+00 -8.098062551299E+00 1.537940710743E+00 4.829867883576E-01 -9.108894498808E+00 4.319908561664E+00 2.972558653986E+00 -3.914050885911E+00 -7.303262370370E-01 -9.117777428245E+00 8.300837293115E+00 -3.165183881713E+00 7.072812162644E+01
 1.236538871206E+00 3.447682618970E+00 2.638814835260E-01 -6.961390125861E-01 1.661497467337E+00 2.090362270547E+00 -9.485168008266E-01 -3.708543806129E-01 7.783064510129E-01 2.018275037416E+00 1.319877235571E+00 -9.134815424628E+00 2.705271780805E+00 3.802234106914E+00 -1.950692844782E+00 4.671413621033E+00 -3.409603334172E+00 3.320226581394E+00 4.337501902838E+00 -5.859330192100E+00 -2.062012835798E+01 -1.835111281574E+00 -3.816668269230E+00 2.908833456239E+00 -9.332120325405E-01 3.775508642705E+00 -5.004315931545E+00 4.344018988173E+00 -8.933682120128E+00 5.550365852705E+01
 2.806991931037E+00 4.385249400084E-01 4.954818384013E-01 8.590494267783E-01 7.130729019167E+00 -1.012713734382E+01 -3.427990599031E-01 -2.525889242539E-01 2.022500045173E+00 -1.020217264767E+00 -5.923469347324E-01 3.976782792647E+00 -6.712702615836E+00 5.890894857328E-01 2.407809231195E+00 -2.600408093755E+00 -1.398349911075E+00 3.353310448790E+00 -1.119797825399E+01 1.344449507038E+01 -2.479858080460E+01 -5.042042269987E+00 -5.823054403479E+00 -7.537816635021E+00 6.679753079671E-01 -3.107000529756E+00 -4.454168225611E+00 -8.753869606962E+00 8.693992929252E+00 -2.314842328793E-01 4.638245820523E+01
 -1.758365359195E+00 -5.136815799822E-01 -1.932746539222E+00 1.972273095041E+00 1.923367392590E+00 -1.913411537006E+00 -1.741452437614E+00 -5.058811971000E-01 -1.623096668386E+00 -6.835915742236E-01 -1.176513183677E+00 7.854346970030E+00 -5.964789663406E+00 -4.227273512642E-01 5.560259662110E-01 3.130499729973E+00 6.907304395235E+00 -1.022439420228E+01 1.073650883428E+01 -5.960640226429E+00 9.149014745170E+00 -9.130346451787E-01 -1.354496814599E+01 -1.814602866927E+01 2.802572382109E+00 -1.036081950063E+01 1.021202928509E+01 4.620356476661E+00 -8.625823652877E+00 3.637877495514E+00 -4.862451393606E+00 4.759637271383E+01
 3.898043097151E+00 6.544007284777E+00 4.860039852932E-02 6.903767314588E+00 1.506998224967E+01 -1.326336381039E+01 -1.762296095667E-01 -3.854108732230E+00 8.533324549591E+00 2.168874299583E+00 -4.787134249226E+00 -6.078404482623E+00 -1.560656593380E+00 1.653673671900E+00 -3.067204897459E+00 1.578188814528E+00 -3.670717019909E+00 1.315823565821E+00 -1.796385505534E+01 1.180730394668E+01 -3.129416756125E+01 -1.591450376669E+01 -1.700529573700E+01 -2.125305131354E+01 -7.376809779843E-01 1.811654527548E+00 -3.365050653158E+00 2.665229628801E-01 5.223144582816E-02 1.881152648571E+00 1.834883799000E+01 -3.290417107931E+00 1.108056508586E+02
 -9.146497495053E+00 -1.145373608812E+01 -3.141326916524E+00 5.679274005327E-01 -1.140845286308E+01 4.289013068339E+00 3.800229483087E+00 -1.694807027135E+00 -1.018682424523E+00 1.162656521606E+00 -1.015915961440E+00 -2.401936770724E+01 -1.474194635643E+02 -4.025028732904E+01 1.868777282068E+01 8.917429104101E+00 -1.834569617938E+01 2.323085363663E+01 -1.384987323342E+01 -4.833254326736E-01 3.555146297207E+00 1.969887306347E+00 3.137533199185E+00 -1.178126436467E+01 -3.924031394535E+00 5.914166930058E+00 -1.411647270557E+01 3.416898263275E+00 8.939569674793E+00 1.565409440944E+00 5.823807590352E+00 6.341078176074E+00 3.470503439144E+00 2.147785225716E+02
 8.348859894614E-01 5.479499519259E+00 1.056246352398E+00 2.132641537646E-01 1.946298692384E-01 7.123124097089E+00 -4.189482470842E-01 3.175451761167E-01 6.178608821449E+00 3.679288042320E+00 5.961898457423E-01 -9.875980039715E+00 -4.599567265298E+01 -1.654757263617E+01 2.091882557066E+00 8.007886977117E+00 -2.263358181937E+00 -8.648773331985E+00 -5.960509598104E+00 1.140862202514E+00 4.750928836846E+00 -8.937746124848E+00 -1.286956976651E+01 2.753012747466E+01 2.391378096109E+00 5.117066967934E+00 -7.832752915028E-01 -7.744735716334E-01 -1.378277994540E+00 -1.299362675009E+00 4.719095371245E+00 -1.139554753092E+01 7.366510469544E+00 -8.071463280287E+00 1.194165157255E+02
 -8.394039873171E-01 -4.995020442036E+00 9.523850854910E-01 2.368043274860E-01 -8.485436963466E+00 4.518176300514E+00 -8.992483246408E-01 1.761270502888E+00 -4.914789220615E+00 -1.567985376946E+00 4.281459824929E+00 5.182335995671E+00 -1.165559599035E+01 -1.053477995816E+00 1.445742485846E+00 4.595564546581E-01 -6.815577521328E+00 9.896863368337E+00 2.198824427466E+00 -1.017436045149E+00 -5.607705019711E+00 1.569162708116E+00 1.987880455762E+01 -5.377480636401E+01 3.751516194913E-01 3.928473394279E+00 -8.301654356189E+00 3.506185413067E-01 -3.114265787173E+00 7.071695862333E-01 1.743569425475E+00 -1.136639142796E+00 3.740283603316E+00 -3.698984416392E-01 -1.708857002212E+00 1.119343836715E+02
 8.950522008648E-01 1.895522959701E+00 -5.219841399943E-01 1.272003512001E+00 2.590149965429E-01 8.733235589697E-01 -6.532822640574E-01 1.485397056315E-01 -3.680938775276E-01 -3.438555684877E+00 4.126553695644E+00 1.320635238952E+01 -2.266279468648E+00 2.856077347341E-01 -5.499128063145E+00 1.015133969591E+00 -9.574421017774E-01 7.114096118862E-01 -1.405379875291E+00 -2.517582282505E+00 1.625575450060E+00 -2.855767097596E+00 -1.316112328627E-01 8.271903082795E-01 -2.942743465940E+00 3.847211033051E+00 -2.501806782252E+00 -1.515403441292E-01 -8.141690018091E-01 2.034603804156E+00 -1.173142214674E-01 -3.072393452199E+00 1.423939164284E+00 -8.514899292788E+00 4.542965753728E+00 1.234358361045E+01 1.837917879544E+01
 -1.365551862232E+00 5.845645454145E+00 -1.148260342081E-01 6.162312129151E+00 -4.322099677437E+00 6.104222009948E+00 -6.845939056959E-01 -2.270985483517E-01 4.231833199011E+00 -3.128396630956E-01 -3.944689067341E+01 -2.430116289667E+01 -6.055251400051E+00 4.818678851040E-01 -5.825531139263E+00 1.372661504293E+00 -3.177216142252E+00 2.066158182363E+00 -5.929764992814E+00 -4.883595016307E+00 2.278059248845E+00 -6.304360978193E+00 -1.436718973553E+00 -2.466529319498E+00 7.009987627874E+00 4.616139963024E+00 -5.585544703775E+00 8.514205115849E-01 -5.796525880567E+00 2.073548038516E+00 -1.140075830251E+00 -5.017138463961E-01 6.865695802620E+00 -1.004022807325E+01 1.150497860198E+01 -5.756639961822E+00 -3.342415924142E-01 1.067797167565E+02
 1.499773521354E+00 -5.174749685551E+00 -1.473813579486E+00 -5.433376186494E+00 4.824694497321E-01 -2.820384974719E+00 2.359851582567E-02 9.372214764752E-02 -3.353523624905E+00 2.684181586238E+00 -2.033057905146E+01 -1.468249415759E+01 -1.877675733637E+00 -7.136369781364E+00 -4.333914975328E+00 -2.373954954972E+00 1.023386540421E+00 9.121725336581E+00 8.083380898271E+00 3.816938805922E+00 -4.825138985615E+00 7.888902198896E+00 7.279820341296E-03 -2.262333486826E-01 -2.145794542893E+00 3.171140487826E+00 -2.511812970455E+00 -1.327170348599E+00 8.897412361287E-01 -3.602391601351E+00 1.247250418161E+00 4.446674395012E+00 -2.050879824825E+00 2.241425708042E+01 -1.226036942035E+01 -2.780371053515E+01 -8.581078787482E+00 -6.260708788230E+00 6.141115407552E+01
 1.824640184571E+00 5.805755120786E+00 8.710839561616E-01 -2.695213496843E-01 6.491159603005E-01 3.471630028586E+00 6.756171328310E-01 1.739097325881E-02 3.812539051380E+00 -1.600898931779E+01 1.281675895657E+01 -1.404612606060E+01 1.098970664665E+01 4.227674769506E+00 -2.435879882848E+00 3.126844044913E+00 -1.695809189630E+00 -4.658694227129E+00 -7.694476193369E+00 -3.111716477481E+00 3.705685898820E+00 -7.432088880193E+00 -2.639805295816E+00 7.457645488540E+00 -2.013739981301E+00 -3.822655417155E+00 1.332173848773E+00 -2.999336299629E-01 -3.944264775774E+00 1.545637138784E+00 2.639375144768E-01 -1.343753058494E+00 4.938631862731E+00 -8.556850264177E+00 6.245859014051E+00 -8.341829012326E-01 4.078352607665E+00 9.019064677107E+00 -8.041566869425E+00 5.864352929461E+01
 6.748137782340E-01 -4.159094933184E+00 -1.115740449123E+00 -3.936707410990E+00 2.846162175301E+00 -2.770865712453E+00 3.893952061425E-01 5.101435462309E-01 -4.769504538080E+00 1.501680376503E+01 -1.301627757863E+01 2.909113842072E+01 5.574916538429E+00 -3.100503783469E+00 1.339136815052E+00 3.103518181168E-01 -1.878757724342E+00 -3.266798643642E-01 6.502486545767E-01 3.558515137701E+00 -2.140770225287E+00 3.293230998846E+00 -1.073582052062E+00 2.349395466595E+00 -1.388132823075E+01 -3.618758696224E+01 -2.624846872824E+00 -1.275291735272E+00 2.355117125649E+00 1.309978026032E+00 1.605786140676E+00 2.260455559557E+00 -2.371107471891E+00 -3.888339057297E-01 -5.506326609251E+00 -1.015028371423E+00 -1.879266692511E+00 -4.421054405103E+00 3.009578477400E+00 -3.514432073049E+01 8.862768380058E+01
 -3.887969295780E+00 -2.201843256135E+00 -5.515564940484E-02 -1.258713071743E+00 -1.484000366740E-01 1.466754676365E-01 -1.130513376458E-01 -5.162407198697E-01 -1.676849712393E+00 -1.499799795792E+01 1.444376358767E+01 -2.046939636942E+01 -2.397675993647E+00 -3.388381319437E+00 -2.026083639236E+00 -4.776053004967E+00 -2.085085814324E-01 -9.105244166792E+00 3.491042882066E+00 2.243372179900E-01 -2.324414870981E+00 3.905841240299E+00 2.367600660536E+00 -6.808025982706E-01 -1.246935087371E+00 -6.318955830298E+00 4.102142630891E+00 2.515754697731E+00 1.047791328634E+00 -7.519054577411E+00 7.373036699999E-01 -1.279513545642E+00 2.136542458576E+00 3.655431290544E+00 -1.154528743168E+00 7.100004844898E-01 3.278025751603E-02 -2.468930738008E+00 -6.784434762500E-01 4.497171263938E+00 9.387485726699E-01 3.528327988175E+01
 -1.476997107879E+00 -3.005414333664E+00 -2.069985517556E+00 -7.967016943634E-01 -6.667551753214E-01 -3.725759951198E+00 -1.407137659068E+00 -4.005871396250E-01 -3.490117302186E+00 -4.973998088838E+00 -5.707625780492E+00 1.114847504173E+01 -5.307259034554E+00 1.775441996847E+00 -9.387621586313E-01 -4.775645086797E+00 2.482144004932E+00 -1.169380575518E-01 3.510354379561E+00 3.866329146901E+00 -3.372226520252E+00 6.569337626583E+00 7.065045544659E-01 -5.952655544518E+00 1.728787899771E+00 -3.851994048849E+00 2.999721727067E+00 -4.810227798362E+00 3.902891585935E+00 -1.092038200521E+01 9.651268954555E-01 4.566666815571E+00 -3.033059916433E+00 7.121345770947E+00 -6.961839854699E+00 4.804104432408E+00 -1.420089711368E+00 -3.819021734473E+00 5.543669731958E+00 -1.210682972852E+01 -2.338498364750E-01 6.952484102531E-01 3.369419547333E+01
 -7.804160669208E-02 -3.598630539828E+00 -7.719269794207E-02 -4.343219537796E+00 9.292648003580E-01 -2.771383127395E+00 2.508976210747E+00 -7.233182208545E-01 -2.365873805307E+00 -5.002616313727E+00 -6.036888602803E+00 1.923975289486E+01 2.769163606086E+00 1.709402411779E+00 1.581765695124E+00 -3.471882554375E+00 5.450715315119E+00 3.196580259485E-01 7.253688038317E-01 2.290140510984E+00 -3.337613786069E+00 2.805344597331E+00 2.568933257386E+00 -4.677720617964E+00 -2.442752313899E+00 -5.156084195869E+00 5.604070298884E+00 -2.343098250548E+00 4.233542949595E+00 -5.687159550264E+00 4.873893396362E+00 -1.219204331295E+00 -8.522711323680E+00 3.831703008536E+00 -9.275252606097E+00 2.374374572996E+00 -8.082538508626E-01 -5.303508727747E+00 2.261982412407E+00 -3.194099036152E+00 3.028589052800E+00 9.744042017746E-01 1.962462843997E+01 5.050570505517E+01
 -4.402746066420E-01 -1.655963377772E-01 -1.987411245439E+00 -8.233966476942E-01 -2.873339598000E+00 -1.704234886103E+00 5.738131667717E-01 -5.619527405028E-01 -1.369257033724E+00 5.668887803002E+00 6.968806121170E+00 -1.095520811937E+01 1.642279556298E+00 2.647652951752E-01 2.885614403065E+00 -2.554700299801E+00 1.684533031222E+00 3.613449999691E+00 5.847596827993E-01 -7.730274225283E-02 -9.299835870655E-01 5.267500915951E-01 -1.203185805615E-01 -2.493757550148E+00 8.144315800710E-01 1.225131955919E+00 -7.830026016195E-02 -6.308645396005E+00 8.180106627660E-01 -1.323942439492E+01 2.739454499940E+00 -3.402532086385E+00 -1.562660217203E+01 4.689286478352E-01 -3.174311459399E+00 2.394792554739E+00 -1.174876940861E+00 -2.718667503658E+00 1.463113682717E+00 -4.517644700453E+00 1.592093677741E+00 -2.851734649798E-01 7.755935646303E+00 7.874465196384E+00 3.709402277748E+01
 1.082019008395E+00 -3.548906249768E+00 1.862232673125E+00 -9.035348455136E-01 2.811100705865E+00 -1.665324402563E+00 7.795529968086E-01 1.480418651885E+00 -4.645554213155E+00 -8.574622732362E+00 1.369190836120E+00 1.615228555730E+01 -4.833873304948E-01 4.099497282416E-01 5.102027062657E-01 -2.801215116094E+00 2.387402808407E+00 -2.204035660436E+00 1.412160510405E+00 2.438957867275E+00 -3.261186364570E+00 2.110192545262E+00 1.645367687581E+00 -8.730256275688E-01 -3.380848553407E+00 -6.096031630264E+00 4.890538718143E+00 -7.915305075591E-01 3.783029475009E+00 -2.262282572101E+00 7.555264216684E-01 3.312039373832E+00 -1.176483752892E+01 -9.072798831172E-01 -1.112878525775E+01 -7.401616011946E+00 -3.681961552138E+00 -9.281743319749E+00 3.249338671500E+00 -3.119550354681E+00 5.155424410871E+00 2.017932314858E+00 1.672808949571E+00 5.643475381732E+00 1.658539232717E+00 4.614159796134E+01
 -6.449563941811E-01 2.713224440256E+00 -1.207267066164E+00 -4.706797559577E-01 -8.086249141296E-01 -4.870807514797E-02 -1.800048529027E+00 2.297715386032E-01 4.843986307820E-01 1.288842071167E+00 -3.438943598058E+00 -8.456763791125E+00 7.080590680828E+00 4.844739082260E+00 -1.084723253854E+00 -6.366145014466E-01 -2.641385338154E+00 3.292490867806E+00 -1.178338488613E+00 8.545790636651E-01 -6.916566825348E-01 -2.249522454892E+00 -1.972760653251E+00 -6.374013580067E-01 -6.881563120382E-01 4.506900559496E+00 -4.806900570294E+00 3.291771283172E+00 1.715423206580E+00 3.208129361788E-01 6.743496063113E-01 -2.765968251356E+00 1.090965269233E+01 -8.801827295611E+00 -6.938436366005E+00 -3.728473392534E+00 -3.399624610581E+00 -3.657066006248E+00 1.286407066688E+00 -3.232873490992E+00 1.527365863453E-01 1.214462236308E+00 4.698469585969E+00 -7.574948330033E+00 -4.672829791654E-01 -4.426926463022E+00 2.289547452013E+01
 1.565023415779E-01 -2.905778286254E+00 8.560510859488E-01 -5.962283346723E-01 1.600400986193E+00 -3.116886854553E+00 -1.094040527728E-01 3.280950962750E-01 -3.198617737560E+00 5.095694685279E+00 -1.346939991907E+00 9.674582154202E-01 -3.669511310524E+00 -5.068086216269E+00 3.568203181788E+00 -1.823149761552E+00 4.369866145156E+00 -1.029807260748E+01 3.112205452406E+00 1.823295288825E+00 -4.372337729948E-01 6.720227459462E+00 2.452525610423E+00 1.283671270371E+00 3.246096201514E+00 -7.626887306087E+00 8.837838415458E+00 -3.745135999673E-01 1.757534849127E-01 -7.647549075247E-01 -4.234163538054E+00 1.124422724380E+01 -3.782757898168E+01 -2.748082890583E+00 -1.391407409462E+01 -1.558113728333E+01 4.313848159400E-01 -1.513137417186E+00 1.823104016052E+00 -3.027246606295E+00 1.684201382199E+00 1.043006484951E+00 3.232331857676E+00 3.211916079850E+00 3.059389019005E+00 2.033647482274E+01 -1.962423121300E+00 5.567502286995E+01
 1.046331165726E+01 -4.240767855686E+00 1.344531731274E+01 -3.723756968733E+01 -1.994590536758E+01 4.397547156844E+01 4.903628662495E-02 5.252462214512E+00 9.969442039571E+00 1.718717087560E+00 3.274386146501E+00 2.983180959432E+01 -2.869026114009E+01 -2.425070172514E+01 -1.099850816834E+00 -4.106013635981E+00 1.854860805532E+00 1.743765238514E+01 -2.954711875836E+01 -2.832449454755E+00 -8.998776771348E+00 -3.792735915463E+01 1.042810692210E+00 -5.910246155534E+00 -3.921125539816E+00 4.453815549095E+00 2.098596727716E+00 -7.937223829973E+00 9.220157690381E+00 -1.386808731845E+00 2.432118439420E+00 2.511545252904E+00 -1.379033096495E+00 4.612563471557E+01 1.365296740437E+01 -8.884112463776E+00 -2.214894381201E+00 -8.852381316734E+00 -3.630896021714E+00 4.892329800081E+00 1.015816203103E+01 -1.665198564999E+00 -1.491142206842E+00 5.758886768531E+00 -1.678887833608E+00 9.431908419169E+00 -1.705165355793E+00 8.976228955279E+00 2.205559367075E+02
 1.183306214937E+01 -3.674742364182E+01 -1.617341584532E+00 -1.879349336346E+01 -3.158345162953E+01 3.622601658190E+01 9.931571289995E-01 -5.574788160786E+00 -1.244782665981E+00 3.271420471187E+00 -2.675628276227E+00 -9.033075354375E+00 5.264178128498E+00 1.764762715413E+01 -8.005831327012E+00 4.721247480720E+00 2.559116135769E-01 -1.647846399126E+01 -1.713878546820E+01 -1.211131611417E+01 5.571440514654E+00 8.785276130515E+00 3.976318927855E+00 -2.430150324641E+00 -1.384329150606E+00 -2.104203407182E+00 1.850832153505E+00 -2.566368847027E+00 -5.199754008109E+00 -1.655782763912E+00 -6.124292389470E+00 -3.482269641366E+00 -8.636145590258E+00 -4.910052206913E+00 -3.204994066051E+00 7.487198138065E+00 3.086475805285E-01 5.612934939238E+00 2.033175845252E-01 -1.478203757461E-01 -4.629199339416E+00 -2.255397941955E+00 -3.060314785876E+00 -1.184200852962E+00 1.470878199605E+00 -3.245016856302E+00 -8.282139559893E-01 -2.666013093971E+00 -7.357878492835E+00 8.965629685883E+01
 2.947727281391E+01 -3.389878962094E+01 2.851276121034E+01 1.096046538129E+01 4.923862110079E+01 -4.169840741509E+01 1.734174058788E+01 4.789533477575E+00 -1.232140952053E+01 -1.105642634686E+00 1.255481638547E+01 4.657655375180E+01 -3.794461193293E+01 -2.411618022863E+01 -4.548571373802E+00 -8.875143386548E+00 -1.416281571788E+01 -1.418983877845E-01 -1.484382430666E+01 2.375067563823E+01 -2.928120067412E+01 -2.217655030315E+01 -2.246959701597E+01 -1.114294669252E+01 -8.160875322242E-01 4.622692060283E+00 6.160315462969E+00 -3.591903764807E+00 2.397975904311E+01 -6.053804295074E+00 1.694012519860E+01 1.253350005506E+01 1.709482561655E+01 6.496693880269E+01 3.297337082006E+00 -1.241382945255E+01 -6.910415205686E+00 -2.616984870943E+01 7.557405042461E+00 -6.997524514011E+00 2.032746924385E+01 2.045722174349E+00 7.263116696848E+00 1.252067083981E+01 -1.591816286406E+00 1.648435948681E+01 -7.580526534338E+00 2.341621185156E+01 1.419789342292E+02 -6.010490876534E+01 3.519733595432E+02
 -1.353004978827E+01 2.039612406384E+01 -1.422989881345E+01 -9.730362679369E-01 -5.547300630402E+00 -1.462835676162E-01 -3.217919531816E+00 -4.234455386697E+00 1.234874822114E+00 6.750711839372E+00 -5.004730307930E+00 -2.075928854212E+01 2.753453710568E+01 -1.089048125184E+01 1.676415542962E+01 -8.081459990421E+01 8.653439612858E+01 -2.609561533100E+01 -6.717801034633E+00 -1.562114759151E+01 1.970842575744E+01 6.799449677457E+00 1.262331964123E+01 2.588714001590E+01 4.567917741326E+00 -2.758309576285E+01 3.382911425338E+01 -2.945693954284E+00 -1.417923655152E+01 -6.720480021932E+00 -1.196743575298E+01 -1.854696292845E+01 6.399321290955E+00 -8.122908306938E+01 1.606038865927E+01 -3.720281955407E+00 4.589246812749E+00 2.618570727914E+01 -1.321599859149E+01 -2.889177032200E-01 -1.204834331829E+01 -2.210461560187E+00 -7.894104098933E+00 -8.553758581573E+00 -1.774737855918E+00 -1.010733756628E+01 1.754326680209E+00 -2.069834461843E+01 -1.390245332981E+02 4.020472039225E+01 -2.174447579086E+02 3.535937908915E+02
 4.370558123055E+00 -4.121828609404E+00 -2.828500223028E+00 3.720266952611E+00 4.190671598938E+00 -7.914564242306E+00 3.597345864925E+00 -5.071950805469E-01 2.577272808120E+00 1.537773660972E-01 -1.829398027473E+00 -1.061766236700E+01 -2.107069705064E+01 -7.947012903200E+01 3.800646246813E+01 2.503425887942E+01 -2.844845591371E+01 6.556411586496E+00 -9.830510839975E+00 -2.163579133560E+01 2.427199737552E+01 -5.681394782023E+00 2.867572251262E+00 -1.008500058441E+01 -5.639789779595E+00 4.210968652815E+00 -7.530859104165E+00 -2.274444722946E+00 -3.299391409160E+01 -5.462545013443E+00 -1.695806348006E+01 1.625787010289E+00 -1.598422225465E+01 5.490289422783E+01 -3.087449994946E+01 1.515054555518E+01 -4.206637382753E+00 -1.344394796376E+01 1.198441148189E+01 -1.599378416866E+00 6.973699709175E+00 6.114674696802E+00 1.157310387460E+00 2.637511013148E+00 -2.287547488665E+00 1.122229848422E+00 -5.946489706446E+00 9.698894780821E+00 3.492156901890E+00 7.554114272380E+00 7.097442945461E+00 -1.030857494666E+01 1.818803932163E+02
 -3.042006447099E+01 4.743666429303E+00 -2.160532186329E+01 -9.086979722992E+00 -2.544783504355E+01 1.886132763273E+01 -3.328626403353E+00 1.878035640187E+00 -1.052424728236E+01 5.345679032188E+00 -7.607436833945E+00 -2.877872838366E+00 5.086303894370E+01 2.750480836227E+01 1.309167436985E+01 9.997703270869E+00 5.042234999148E+01 -5.537363266173E+01 -3.910485794490E+00 1.270911657703E+01 -2.280102866921E+01 5.726918989430E+01 2.232636292488E+01 -1.253141455316E+01 2.587746990652E+00 -6.235550089252E+01 3.233397964329E+01 -2.608289422650E+00 -8.069907009956E+00 -7.481345430752E+00 4.915692010712E+00 -1.583689731912E+01 1.848760572579E+01 -9.240467257357E+01 -2.070799055567E+01 2.615455515172E+00 6.037043746824E-01 6.164996721583E+00 2.886282087784E+00 -1.032349496351E+01 -3.913665716598E+00 -2.870899757323E-02 9.510097666851E-01 2.488518422990E+00 -7.748069567328E-01 2.011180136486E+00 1.132565735407E+00 -1.491885179379E+01 -2.325093157920E+02 9.733781751716E+01 -3.961649179097E+02 3.772913415400E+02 9.786096482631E+00 8.656968250093E+02