#BIOSYM hessian 1
@Type: Hessian Update
@Units
 distance: 	A
 energy: 	Kcal/Mol
#header
@natom 19

#label
L1      L2      L3      L4      L5      L6      L7      L8      L9      L10     L11     L12     L13     L14     L15     L16     L17     L18     L19

#element
Li Li Li Li Li Li Li Li Li Li Li Li Li Li Li Li Li Li Li

#matrix
57
 2.962054827110E+02
 -2.010030022566E+02 1.419915488757E+02
 -8.159545731527E+01 5.672849036315E+01 2.740167281919E+01
 -2.592773573841E+02 1.836003664319E+02 7.779756675854E+01 4.799664932522E+02
 -3.284995664592E+02 2.305025733566E+02 9.422145947361E+01 4.635604995911E+02 4.976773686138E+02
 -2.250088219386E+02 1.598068806979E+02 6.349613704296E+01 4.539717989552E+02 4.350843820402E+02 5.002827819809E+02
 -2.141327944842E+00 1.332708277804E+00 4.387387229525E-01 -5.845294863356E-01 9.315641347057E-01 3.928766472161E+00 1.424897138697E+00
 2.776033459961E+00 -2.126569281391E+00 -4.415116001823E-01 -3.659267792444E+00 -4.022206963667E+00 -4.370498479712E+00 -6.000672704023E-01 7.319191373235E-01
 -1.841129557992E+00 1.095586957818E+00 2.268381587257E-01 -2.208072412328E+00 -5.794932280927E-01 -1.200227956890E+00 -1.749313899480E-02 -3.775092064875E-02 7.322693989354E-01
 -6.968846719286E-01 8.731693879141E-01 1.954391532954E+00 -2.507837746626E+00 -2.223159812410E+00 -5.504030814040E-01 5.330992810471E-01 2.906480679103E-01 2.432941756706E-02 2.856571658579E+00
 2.990551717946E+00 -1.718345593082E+00 3.129604146264E-01 -1.896653479565E+00 -1.049493287567E+00 -3.489017945791E-01 1.651523798612E-01 3.211921999701E-01 -9.008219083648E-02 2.478679425122E-01 4.265383111099E+00
 -2.287072023652E+00 7.935746970136E-04 -5.476045361661E+00 -3.229603011062E+00 -7.124929050451E-02 -1.824062332217E+00 -6.970206069709E-01 -9.052348141851E-01 3.678191578399E-01 -5.868562714483E+00 -4.304256891351E+00 1.717066444067E+01
 9.824645378393E-01 -7.125335295235E-01 -2.549777676163E-01 -1.437980431550E+00 -2.116439278155E+00 -6.795048545423E+00 -4.805996426583E-01 -2.399660745824E-02 -8.407379944906E-02 -7.952530778296E-01 -5.575518053137E-01 1.413913023997E+00 2.236747474778E+00
 4.066245480922E+00 -2.772736546867E+00 -1.022395630216E+00 -2.763812395300E+00 -3.970861195573E+00 -4.195780824993E-01 1.642765892383E-01 5.329388844526E-03 7.421255617760E-03 2.688246779664E-01 6.613643678392E-02 -5.689621378852E-01 2.342002767646E-01 4.828668435540E-01
 -3.221881365118E+00 2.244936829617E+00 1.052188713563E+00 2.849915765645E+00 3.675688925592E+00 3.901884940145E+00 1.819252799462E-01 -8.956319074398E-03 4.468723699254E-02 3.452738422926E-01 2.005349745059E-01 -7.911890738053E-01 3.559061916354E-01 2.601585355990E-02 9.090127135642E-01
 -2.549472525224E+00 1.274258101000E+00 -6.603746990955E-01 -7.717627549388E+00 -2.822966400519E+00 2.323049004368E+00 9.042664062606E-01 -1.326645713130E-01 4.120505750280E-01 4.170364286844E-01 1.283239006756E-01 7.968822099707E-01 -9.598059775341E-01 2.440511611175E-01 2.550039188045E-01 2.380349323592E+00
 2.168253385402E+00 -1.297067804599E+00 -3.648114257296E-01 3.378223507995E+00 8.758704949288E-01 -2.467281906792E+00 -6.161549610772E-01 9.428455472660E-02 -2.266348703601E-01 -6.137673740751E-01 -4.246124715604E-02 7.201243417472E-01 5.430797325963E-01 -2.708838669240E-01 -2.129083592506E-01 -1.642306215920E+00 4.735447956936E+00
 2.806269772138E+00 -1.374542579542E+00 7.570105980490E-01 9.737036095473E+00 3.945221046140E+00 -1.918138633441E+00 -1.048939027773E+00 1.294942089918E-01 -4.815516909637E-01 -5.442337324999E-01 -2.587127291813E-01 -6.511923892443E-01 1.134686970147E+00 -2.863731442175E-01 -2.937745439869E-01 -2.859613430225E+00 3.037897813481E+00 3.808478788334E+00
 7.045244974999E-02 8.191648369378E-03 2.714969203102E-01 -8.931112699883E-01 8.619129104522E-03 1.493586781958E+00 2.486807029689E-01 8.501409449383E-02 3.566282127336E-02 7.111746650486E-01 4.827983004394E-01 -1.544145708302E+00 -3.835579224295E-01 9.138965358404E-02 1.405684440207E-01 4.316307032550E-01 -2.757017059829E-01 -5.339864069792E-01 4.144234963079E+00
 7.991998000171E-01 -7.017966868228E-01 -6.486404884737E-01 -3.787982073992E+00 -2.553221187059E+00 -1.932553723131E+00 1.253132687678E-01 -1.945737747171E-02 8.748046741252E-02 -6.612877772179E-02 -6.281245075984E-02 6.173079535444E-01 -1.192993826502E-01 2.798516840527E-02 9.516512715378E-03 4.478834970896E-01 -1.876075756723E-01 -5.245717623578E-01 1.401434001667E+00 6.097692527179E-01
 -7.147833342664E-01 2.875697179940E-01 -2.425825051697E-01 -6.980834896832E+00 -3.808068027806E+00 -6.517877649588E-01 6.364467004008E-01 2.703446043736E-02 2.516208816954E-01 7.906755354504E-01 5.321765475613E-01 -9.592898141852E-01 -7.650456990141E-01 1.864863833596E-01 2.174337206236E-01 1.478194820300E+00 -8.023951430573E-01 -1.727987147402E+00 -3.119091280733E-01 1.258102020849E-03 1.256582900298E+00
 3.326551878728E+00 -2.309864282361E+00 -1.255948821555E+00 -2.275108303922E-01 -2.126106798582E+00 -4.672437238758E+00 -5.698838734545E-01 -3.620641995845E-02 -1.452226599095E-01 -1.140715998880E+00 -6.113220815103E-01 2.286625625038E+00 4.630266098141E-01 -2.785519699704E-01 -1.573176308531E-01 -9.807635967745E-01 7.293361628465E-01 1.169172968278E+00 -4.378733029643E-01 -9.919380234599E-02 -8.375483797126E-01 1.086501641026E+00
 9.326343354555E-01 -1.704038368522E-01 1.330856695807E+00 6.577475307607E+00 3.297111746806E+00 1.343876937282E+00 -3.489126729787E-01 1.290995788345E-01 -2.689500038176E-01 5.359309857631E-01 2.413720935608E-01 -2.531495912332E+00 2.705390956266E-01 -4.510428166304E-02 4.077650151833E-02 -1.329069363187E+00 4.092159365511E-01 1.496666446701E+00 -7.468336721269E-02 -3.403862902960E-01 -7.039965453998E-01 3.117632766475E-01 1.136712357697E+00
 3.718987046574E-01 -6.413803419619E-02 6.220013211645E-01 1.250382489770E+00 4.217401237177E-01 -1.372331640322E-01 -4.556639719829E-02 8.847809856923E-02 -8.041415807279E-02 4.771341246377E-01 2.880856984677E-01 -1.583867048087E+00 1.331396342526E-01 7.664940917626E-02 -2.278163553255E-02 -3.592855586769E-01 6.060957256406E-02 3.902422245831E-01 7.069643034237E-02 -1.135627183650E-01 -1.072177261008E-01 -2.232713950961E-01 2.607035821524E-01 7.509356534941E-01
 -3.345034113586E+00 1.390180584732E+00 -1.229843268882E+00 -1.741953631029E+00 1.041187352981E+00 3.816731290706E+00 1.287974891261E-01 8.515927609509E-02 -1.054264162834E-01 -8.466226449836E-01 1.295694185902E+00 1.977918643009E+00 -1.711661758611E+00 -3.889878265856E-01 -6.271376311781E-01 1.243246619542E+00 1.222450166119E-01 -1.392016770276E+00 -3.751996829977E+00 -1.071767195618E+00 1.551308136814E+00 -2.504531008946E-01 -1.189372234985E+00 -3.682967449040E-01 8.578464392254E+00
 -6.704355411299E-01 -5.235032155779E-01 -1.569584057471E+00 -1.015895989831E+01 -7.675793736538E+00 1.359345450947E+00 1.151970894806E+00 -3.743888076833E-01 5.753646587493E-01 1.766895872095E+00 -3.059137215850E+00 7.244741383845E-01 -1.024675125876E+00 3.047174705192E-01 9.857573850104E-02 2.539753356187E+00 -5.134252437576E+00 -4.039530531919E+00 -9.949989891972E-01 -1.047383961863E-01 1.570869465493E+00 -9.703920940783E-01 -1.042872482646E+00 -1.710976168342E-01 1.975190867639E+00 1.156976098275E+01
 2.905148607902E+00 -3.395915026407E+00 -3.005648169033E+00 -4.125383984554E+00 -2.193822959446E+00 -2.188213507816E+00 -4.613248261219E-02 1.792564878332E-01 -1.744746310098E-01 -4.460519945700E-01 -1.267854765025E-01 1.455998734569E+00 -8.305242330210E-01 -3.647965554506E-02 -4.146526874365E-01 8.786801487602E-01 -2.007243771299E+00 -1.514208254085E+00 6.979944837919E-01 4.403692854463E-01 1.629977836324E-01 -4.894621217531E-02 -4.337738176535E-01 -7.276634268284E-01 1.208475521186E-01 1.308109789302E+00 5.581602761652E+00
 -2.056668374970E+00 1.264755757346E+00 1.877575057657E-02 -2.412149415031E-01 1.229722789939E+00 9.086232132132E-01 6.720189384319E-02 -5.433076989568E-02 8.358918724960E-02 -2.825447607906E-01 -8.506407165780E-02 1.023200247537E+00 -8.410464709010E-02 -5.340845215733E-02 -2.487555885000E-03 3.645999681823E-01 -5.549013849768E-02 -4.019199329242E-01 2.121183704137E-03 1.011584966811E-01 1.649963125392E-01 -1.740460029978E-02 -3.466164522022E-01 -1.394328544255E-01 4.415365118565E-01 2.002378498342E-01 1.277140942763E-01 1.520318940717E-01
 -1.418623748863E+00 1.008641721326E+00 4.288918031198E-01 2.502655300573E+00 2.482669040509E+00 3.606331787042E+00 1.175379716363E-01 -1.704683325395E-02 1.257483521009E-02 1.769234754638E-01 1.121440459982E-01 -3.722611946774E-01 -1.667360857081E-01 3.306352754179E-02 6.253048888004E-02 1.804363940378E-01 -1.223498829969E-01 -2.080080837330E-01 8.561326065338E-02 7.997441986178E-03 1.376875074873E-01 -1.655436148183E-01 -3.664177165330E-02 8.968274185531E-03 9.226589407485E-02 1.660538263244E-01 1.474164020908E-02 -4.190894111698E-02 1.863686618655E-01
 1.455078671651E+00 -1.166957012818E+00 -7.747570962062E-01 -6.079274876079E+00 -4.780414705524E+00 -4.881953290086E+00 9.467153941948E-02 1.306545853548E-02 9.537131235280E-02 -3.529823289239E-02 -7.331332920388E-03 4.676460919177E-01 -7.242693158014E-02 1.519704257134E-02 -8.339926995346E-03 3.916551125210E-01 -1.412347150606E-01 -4.541661791001E-01 3.958315871627E-02 1.130928155116E-01 2.523676070836E-01 -7.910725909819E-02 -3.034953641798E-01 -9.160834138091E-02 2.664772082652E-01 3.199784313864E-01 1.318898698096E-01 9.437716116249E-02 -5.969234060931E-02 1.995908387914E-01
 9.443095267283E-02 -4.940868902018E-02 1.140771288025E-02 4.634398096382E-01 2.232196989052E-01 7.586097377221E-01 3.255346820228E-02 -1.993328237752E-02 -3.608899967020E-04 2.594121827834E-02 -5.736834681239E-02 -5.365979613148E-02 -6.178635600806E-03 3.523050369744E-02 1.109657770083E-02 1.998768965226E-02 -7.620351748229E-02 -2.273460630033E-02 -6.279450496863E-03 -5.783976536595E-03 1.757445232034E-03 -2.604019374747E-02 2.638908649299E-02 7.133858648366E-03 -8.657528064358E-02 7.940976795798E-02 3.844539206574E-02 -1.683329421664E-02 7.484386931347E-03 -1.135543383341E-02 5.630170125337E-01
 1.628390009870E+00 -1.069311700638E+00 -3.397399860040E-01 6.638494490409E-01 -6.151000529378E-01 -1.542685312242E+00 -2.420732485956E-01 -1.668392771785E-03 -8.999786179029E-02 -3.337356045856E-01 -2.118904555479E-01 4.751680141652E-01 2.933185387114E-01 -5.470393575429E-02 -1.038974711015E-01 -5.269326930208E-01 2.874514452107E-01 6.149540469128E-01 -1.710311043271E-01 -8.220071724081E-02 -3.972840108133E-01 3.333596259371E-01 2.323732930400E-01 2.707408126832E-02 -2.884709143956E-01 -4.546663759718E-01 -7.333938482720E-02 -6.052698428184E-02 -6.422782552642E-02 -7.069505060025E-02 5.306233365658E-02 2.196730527152E-01
 1.805726999541E+00 -1.210302550238E+00 -4.805346277157E-01 -1.240681062000E-01 -1.189986242979E+00 -1.676890803866E+00 -1.929897426565E-01 1.056539450538E-02 -6.962528992647E-02 -2.825467983336E-01 -1.020021456233E-01 4.192087565011E-01 2.030309998711E-01 -4.790701114530E-02 -9.012630532388E-02 -3.781234341616E-01 2.579394000317E-01 4.459498713222E-01 -1.150515345705E-01 -4.862213702907E-02 -2.836248663037E-01 2.607818483849E-01 1.405199422838E-01 9.559062634955E-03 -1.185406729302E-01 -3.687844273801E-01 -4.772420997548E-02 -3.501134195027E-02 -5.083197560995E-02 -4.129413970763E-02 8.907015325206E-02 1.566380000426E-01 2.813868368969E-01
 -6.724294840857E+00 4.625478701377E+00 1.929649961487E+00 4.744984094996E-01 3.598613241656E+00 3.908215659398E+00 2.690770207626E-01 -3.141297063812E-02 1.372343442420E-01 3.954651169951E-01 1.152818319746E-01 -6.449530305619E-01 -2.522744067452E-01 3.217763392313E-03 1.487519331022E-01 4.545529705872E-01 -3.872957570583E-01 -5.455609374952E-01 1.493488890061E-01 4.633042398751E-02 3.426886954241E-01 -3.671568718383E-01 -1.443790750615E-01 4.687835769895E-03 -3.261765707197E-02 5.599202411665E-01 -1.164352357791E-02 5.315305920996E-02 5.795256891015E-02 4.773077962861E-02 -1.750502124479E-02 -1.086365158393E-01 -1.686860827895E-01 2.927185322399E+00
 1.003619866537E+00 -5.952068932624E-01 -2.348975267321E-02 3.623810321637E-01 -3.695393663870E-01 -5.784557063342E-01 -8.797293363801E-02 2.993229885523E-02 -6.596263677547E-02 4.315396258696E-02 8.482177623496E-02 -3.997203799758E-01 6.910686917661E-02 -1.415103197162E-03 -2.641793768405E-02 -2.725579302765E-01 1.202394762563E-01 3.138683957982E-01 -1.280953216477E-02 -5.622041168093E-02 -1.517264219038E-01 7.393598586282E-02 2.003931575444E-01 6.984566431407E-02 -1.876473208474E-01 -2.550711085430E-01 -5.246414803937E-02 -6.570851718152E-02 -1.672168025169E-02 -4.947657793183E-02 4.043478213706E-02 2.425569270954E-02 5.787387275049E-02 1.569399135930E-01 4.802264337561E-01
 8.679789562895E-01 -6.473308419302E-01 -5.515756388587E-01 3.382086290600E+00 1.834086752217E+00 8.474676224611E-01 -1.381560674983E-01 -9.126790197696E-02 -5.141403930875E-02 -5.340547064421E-01 -3.935513307958E-01 1.294698229092E+00 2.034653625750E-01 -4.680839857273E-02 -9.143211672906E-02 -1.967096125933E-01 1.753739556945E-01 2.564700657905E-01 -1.857579919636E-01 -1.407907911730E-02 -2.620017019440E-01 2.871156722864E-01 -2.190367091477E-02 -8.541612656934E-02 8.148082574614E-02 -2.469644617921E-01 -3.568736479022E-02 2.743597520412E-02 -3.057267210209E-02 -2.924670775528E-02 -2.017681508130E-02 1.106645990486E-01 7.205095494714E-02 -1.710934207455E+00 8.315328007233E-02 2.197231140710E+00
 -3.667314310337E+01 2.164748490065E+01 9.034133104062E+00 -3.079721123075E+01 -4.686956322663E+00 -5.608549710295E+01 -1.929712811128E+00 5.968687352415E-01 1.272504858866E+00 -2.013339647923E+00 -1.444097635020E+00 6.419273631940E+00 2.184659847463E+00 -1.700242435641E+00 -4.174814512082E-01 -7.880015584616E-01 1.375866563731E+00 8.703118258346E-01 -9.809516899005E-01 2.509622029767E-01 -6.446684856863E-01 1.481108823735E+00 -9.311836750007E-01 -4.617864780581E-01 9.390063920733E-01 -1.594477374747E+00 -9.052125883247E-01 7.062012794526E-01 -6.926719705869E-01 7.774153116911E-01 -3.677204010322E-01 2.771877272045E-01 2.277989930671E-01 6.487865175971E-01 -3.773628655931E-01 -3.511895378436E-01 3.277006443612E+01
 1.515642771885E+01 -1.452237427972E+01 -2.777330104487E+00 -1.306703298632E+02 -1.028532335781E+02 -1.631473612680E+02 -1.229064067034E+00 1.307756761559E+00 7.427741310733E-01 9.578503852949E-01 5.948134820956E-02 -8.658012182209E-01 2.934731778633E+00 -1.146874875685E+00 -8.650545145873E-01 -1.297446192705E+00 1.098589050472E+00 1.168922370682E+00 -6.121510000814E-01 4.283730494165E-01 1.012263113495E-01 1.276144818472E+00 -1.557650097686E-01 2.634583114473E-01 -9.965740695514E-01 -1.086556905344E+00 -1.352854127938E+00 3.676929409844E-03 -1.273417396499E+00 1.657717204785E+00 -4.391613930024E-01 3.498766354612E-01 3.302475473705E-01 7.953008770544E-01 3.630524118526E-02 -1.334890081600E+00 3.900854667445E+01 7.473059429156E+01
 3.641541340448E+01 -2.807860602868E+01 -1.271552872880E+01 -2.470685931171E+02 -1.953854772804E+02 -3.175228284003E+02 -4.155050243037E+00 2.173226741372E+00 1.257045258384E+00 -3.082401777552E+00 -2.158972213784E+00 1.011143340450E+01 7.316781755896E+00 -2.923046299835E+00 -2.590196072150E+00 -4.061088761027E+00 4.256404589216E+00 4.268205591678E+00 -2.556758662411E+00 9.102199486877E-01 -1.797194461633E+00 5.128749704049E+00 -1.096648552251E+00 -3.692897030925E-01 -7.899363727314E-01 -4.478059086725E+00 -2.686988543433E+00 5.072056845776E-01 -2.881613597772E+00 3.187704043427E+00 -9.644986897433E-01 1.493852903371E+00 1.356240399297E+00 9.377904380861E-01 2.215836328006E-01 -1.600511882825E+00 7.560003392225E+01 1.377300378748E+02 2.791509589911E+02
 -3.164728762746E+02 2.184003021170E+02 8.937066191097E+01 2.863861075122E+02 3.588291405206E+02 2.474259207089E+02 2.120585346225E+00 -2.745682400174E+00 1.719083078388E+00 1.925824290485E+00 -2.369473889015E+00 -1.645160798477E+00 -1.128321319923E+00 -4.299059824764E+00 3.587352120385E+00 1.814868416929E+00 -2.094825631932E+00 -1.977768081151E+00 1.376100275980E-01 -1.166273386185E+00 4.745026476305E-01 -3.790485712043E+00 3.760769043568E-02 7.211537192619E-02 2.335830342806E+00 -2.932711389517E-01 -4.316126642046E+00 1.862774849809E+00 1.587382901212E+00 -1.861116313553E+00 -7.845437604679E-02 -1.687160973597E+00 -1.915711015877E+00 7.233577602328E+00 -8.913939920604E-01 -1.108937277556E+00 3.587435547382E+01 -1.934295840724E+01 -4.372234344769E+01 3.417252761705E+02
 1.939632954276E+02 -1.340839527543E+02 -5.467008976465E+01 -1.749898464812E+02 -2.203650460891E+02 -1.500073602613E+02 -1.089513656178E+00 1.714947138665E+00 -1.063233842868E+00 -7.567578590562E-01 1.656184190872E+00 -1.678478849260E-02 4.829744821916E-01 2.738804354368E+00 -2.120760847640E+00 -9.413406881196E-01 1.060182607347E+00 9.964936959001E-01 5.412264416335E-02 7.065958400021E-01 -1.051838826324E-01 2.065782871682E+00 3.462985203475E-02 2.641815620049E-02 -1.435970958786E+00 3.744241010781E-01 2.684832633069E+00 -1.198627719273E+00 -9.176388206333E-01 1.125582554039E+00 6.767328007151E-02 9.534373476902E-01 1.102805524246E+00 -4.393444398181E+00 5.364929515496E-01 6.111380043869E-01 -2.315907084472E+01 1.073521717769E+01 2.409287161707E+01 -2.090490247450E+02 1.291940472304E+02
 7.852625721214E+01 -5.369641313990E+01 -1.951679388953E+01 -7.085501572749E+01 -9.062830627016E+01 -6.322781517924E+01 -2.225736779422E-01 1.108305809496E+00 -5.781245023857E-01 2.359004800580E+00 2.461933941128E+00 -7.676593719173E+00 -3.371646357525E-01 1.295457468786E+00 -5.416411292442E-01 -8.990149805014E-01 2.166755022277E-01 8.737578182765E-01 6.780026503767E-01 -1.027438712063E-02 3.018448010064E-01 -1.046677972675E-01 1.196119354181E+00 7.390760441670E-01 -1.482125038482E+00 -2.800351947188E-01 3.658090926031E-01 -9.545180905639E-01 -2.388558518041E-01 2.609059611576E-01 3.353758767017E-02 2.000995585531E-01 2.771394898150E-01 -1.479806918475E+00 4.033346073743E-01 -3.507886899666E-01 -1.111196573914E+01 6.746252929659E+00 8.708514241987E+00 -8.306670294514E+01 5.148809780633E+01 2.446654292352E+01
 3.414467385067E-01 -1.742640641882E-01 2.465924282112E-01 4.190396496269E-01 2.489862421611E-02 -2.730279995179E+00 -2.796264710143E-01 6.163901042513E-02 -9.329858391453E-02 -1.380434710783E-01 2.322930988240E-02 -1.376652956870E-01 2.767643112179E-01 -1.077237159563E-01 -9.087276757143E-02 -6.180825852425E-01 3.806500161142E-01 7.112394585325E-01 -1.120654179814E-01 -1.032271290880E-01 -3.813410436304E-01 2.878868128403E-01 3.158932308717E-01 8.594455393722E-02 -2.541958277169E-01 -6.313241598988E-01 -2.122409315295E-01 -7.720684556606E-02 -5.577992562533E-02 -8.701121611719E-02 -2.118648495631E-01 6.268014462495E-02 -6.402347971278E-02 -1.052941885093E-01 6.487532571853E-02 3.990086297608E-02 9.911745288605E-01 1.476064113016E+00 3.363144694819E+00 -3.916679836815E-01 -5.273719770766E-02 2.410135369947E-01 6.593546259459E-01
 -1.631916672058E+00 1.029550701764E+00 6.534453408983E-02 -2.130638692279E+00 -3.380297541770E-01 7.886566388916E-01 2.990081001550E-01 -4.723355307567E-02 1.430305675938E-01 1.946968703959E-01 -4.475326320434E-03 1.432584548213E-01 -2.811408916807E-01 7.441202468837E-02 9.928524047705E-02 7.264367533411E-01 -4.160457733314E-01 -8.432005463972E-01 1.284720451042E-01 1.328177600555E-01 4.730272791077E-01 -3.341830974342E-01 -3.984842073020E-01 -1.015856060904E-01 3.109115942383E-01 6.840795667285E-01 1.919683528358E-01 1.226616190471E-01 1.466566188052E-02 1.771623525308E-01 -6.562970872423E-02 -2.033237619798E-01 -1.983767128745E-01 1.894956602846E-01 -2.469505461130E-01 -1.157642355188E-01 -9.687067997427E-02 -1.712417880649E-01 -9.786065661387E-01 1.385743327049E+00 -1.006243994430E+00 -3.526940402809E-01 -8.065630625795E-02 6.716732271217E-01
 -2.063578697387E+00 1.401332479921E+00 5.174507022123E-01 1.725892622984E+00 2.246230265459E+00 2.455237939773E+00 1.002966551159E-01 -3.623222442723E-02 3.727635152480E-02 7.520603211600E-02 -2.959798099848E-02 -2.576045125530E-02 -8.930415433367E-02 1.397728510742E-02 5.080936083689E-02 1.854162532803E-01 -1.349300341422E-01 -2.136881139410E-01 3.372792123213E-02 1.739006483397E-02 1.128102248415E-01 -1.164641672650E-01 -7.804484449461E-02 -1.869205390172E-02 5.641478511623E-02 1.981012089790E-01 3.294892129356E-02 1.392228885893E-02 9.266025724118E-02 -6.811273487438E-02 -1.610681504099E-01 -1.178598726987E-01 -1.920853821686E-01 1.108121499362E-01 -5.130783920557E-02 -4.064933431588E-02 -1.537866429089E-01 -6.115878040815E-01 -1.436358163649E+00 2.304717550803E+00 -1.230713199395E+00 -6.051631537890E-01 -9.881615385988E-02 1.522368293265E-01 9.554747493190E-01
 -2.517774487070E+01 1.707956539847E+01 5.715229710277E+00 -1.528014813385E+00 1.522632412652E+01 -8.844487133588E+00 -2.220858215361E-02 -3.130117753551E-01 4.096590654565E-01 -1.151393109446E+00 -6.942550055761E-01 3.745793327895E+00 6.464286719381E-01 -6.323762561872E-01 6.853195887008E-02 6.743873892593E-01 -3.158077876156E-01 -7.923529917835E-01 -2.249459674946E-01 3.013582365407E-01 1.587366600280E-01 2.199017811082E-01 -8.555806947774E-01 -3.680433076785E-01 3.544938405531E-01 -2.052792487728E-02 7.547967490047E-01 4.640188340843E-01 -1.376245337862E-01 3.271625011093E-01 -3.991789487106E-01 -1.024850648529E-01 -3.543370439372E-02 2.079866666408E-01 -2.168909285678E-01 2.973661562174E-01 1.063187393456E+01 1.063570021042E+01 2.224921184169E+01 2.605591920667E+01 -1.666883248443E+01 -8.360384817306E+00 1.236809637701E-01 3.320687864567E-01 2.235763120149E-01 7.634720488550E+00
 1.282282256218E+01 -9.984976157226E+00 -7.307798934667E+00 1.708944015273E+01 1.363250750935E+00 2.425695512639E+01 -6.345758518612E-01 -6.150366123303E-01 -1.257607128668E-01 -4.124511367579E+00 -3.308581768446E+00 1.120299015168E+01 7.323090186337E-01 7.712326136962E-02 -6.323654785647E-01 -4.072721295916E-01 1.008989999336E+00 7.252903389280E-01 -1.318576867037E+00 2.473476649751E-02 -1.362093987729E+00 1.822600181354E+00 -1.014425119155E+00 -9.592053531739E-01 1.030485326567E+00 1.394664329868E-01 1.698660420465E-01 3.962557856343E-01 -1.568083457677E-01 -1.830231747055E-01 5.941331798687E-02 5.742926428479E-01 5.209088566491E-01 -3.558972881553E-01 -1.491091532038E-01 7.604689985288E-01 -5.881178787365E+00 -1.588316684697E+01 -2.216602639538E+01 -1.647536430474E+01 9.648904325187E+00 -1.194843496826E+00 -2.263663036352E-01 -3.379901497586E-01 -2.237242848219E-01 -4.275711888784E+00 1.610442992619E+01
 -1.210694029341E+00 1.658012742920E+00 2.723911423199E+00 6.369423910160E+00 5.774920216916E+00 8.503668227708E+00 5.138913714285E-01 3.033214226321E-01 -1.546763906487E-01 2.596105886793E+00 1.959276751832E+00 -7.311846803335E+00 -9.143201727494E-01 2.420891327336E-01 3.227769199782E-01 1.293087294530E-01 -5.270073470168E-01 -2.459167986887E-01 8.366228542263E-01 -1.837547665140E-01 6.865278021996E-01 -1.223649310276E+00 8.541536521772E-01 6.153845571195E-01 -5.007888435241E-01 1.005915699527E-01 -3.514044983204E-01 -3.565306416398E-01 2.297165510677E-01 -1.931536111962E-01 1.221881507513E-01 -3.258081389751E-01 -3.063912339411E-01 1.828232461153E-01 1.559128821086E-01 -5.047943325778E-01 -4.363088215872E+00 -2.788655274811E+00 -1.080518946979E+01 3.022301313180E+00 -1.563558490746E+00 2.463472609128E+00 4.637576377253E-02 -7.642418455075E-02 -5.063923513972E-01 -1.561819237434E+00 -4.682140280990E+00 4.351703091939E+00
 3.546778288024E+02 -2.476334660784E+02 -1.021405485136E+02 -4.590064264134E+02 -5.013663923316E+02 -4.129184502849E+02 1.376764570429E-01 3.695515333158E+00 3.512880354732E-01 2.345778894533E+00 2.158103849192E+00 -8.441698474098E-01 5.776199594442E-01 5.061589814744E+00 -3.500567787142E+00 4.671840254825E+00 -2.387246558607E+00 -6.017780335321E+00 7.976882370418E-01 2.922187117692E+00 4.817189410375E+00 1.168978663689E+00 -3.763783858086E+00 -5.441127805717E-01 -1.935090173041E+00 7.797936761564E+00 5.423683742801E+00 -1.326647748725E+00 -2.156738463360E+00 4.694213328591E+00 7.209353903677E-03 2.891681705546E-01 9.096119336174E-01 -5.328085869001E+00 2.926481021943E-01 -6.735079563453E-01 -1.255257554085E+01 8.180055151088E+01 1.544276823454E+02 -3.862988235306E+02 2.374583480649E+02 9.686600267916E+01 -8.336617330816E-01 8.142813429267E-01 -2.142607672790E+00 -1.861476061649E+01 5.391570112380E-01 -4.011855792089E+00 5.205456976343E+02
 2.923302676366E+02 -2.030281316041E+02 -8.257546886552E+01 -3.419470857571E+02 -3.873181372411E+02 -2.926719323479E+02 9.770259177613E-01 2.847067866541E+00 -8.133850305120E-02 3.666055177270E+00 2.841485460238E+00 -5.884357914007E+00 -9.709576338452E-01 4.674778578569E+00 -2.250746953110E+00 4.254058832913E+00 -2.830264183687E+00 -5.414710955864E+00 1.352555821601E+00 2.130324898566E+00 4.398948916805E+00 -2.717066577703E-01 -2.331530583725E+00 -4.251469312653E-02 -2.160546900528E+00 7.162358417333E+00 4.720131732024E+00 -1.456065703022E+00 -1.261783171020E+00 3.262908703054E+00 1.936231134690E-01 -5.784238695793E-02 4.718915558320E-01 -4.523129415619E+00 2.270449967498E-01 -7.067348655394E-01 -2.519230530819E+01 4.516244405513E+01 8.053553499309E+01 -3.166344275149E+02 1.953255640859E+02 8.140986762979E+01 -1.210880161340E+00 7.719532355553E-01 -1.551420767102E+00 -2.005643347978E+01 1.712550894053E+00 -8.161081526727E-02 4.107597094909E+02 3.327467502075E+02
 2.000701756204E+02 -1.391422323007E+02 -5.774215449325E+01 -2.305485783986E+02 -2.612500223482E+02 -1.931988737308E+02 8.452419513726E-01 1.783850946363E+00 -5.876220124750E-03 1.891411847573E+00 1.689207237575E+00 -1.857122207484E+00 -7.722440211368E-01 3.563996738839E+00 -1.787064585476E+00 3.661474619927E+00 -2.092070857008E+00 -4.529944420424E+00 9.106082956542E-01 1.632174501429E+00 3.311083855158E+00 -2.077685893729E-01 -2.274820457145E+00 -3.243595400436E-01 -2.485639235607E-01 5.771894093482E+00 4.020928392748E+00 -7.765522863773E-01 -7.948524224883E-01 2.290484480309E+00 1.380024177596E-01 -1.379729154812E-01 2.847926429850E-01 -3.181891119951E+00 -1.337388189003E-02 -6.981065992052E-01 -1.918854171045E+01 2.624478671804E+01 4.762617557179E+01 -2.173608566182E+02 1.340435295480E+02 5.478017733049E+01 -1.061879657398E+00 6.901676579833E-01 -1.018533169047E+00 -1.356801714790E+01 2.882490342814E+00 -5.104963250248E-01 2.789004016960E+02 2.264702646648E+02 1.568560446169E+02
 1.402790039565E+00 -9.121427986098E-01 -6.826833196179E-02 -1.438425541178E+00 -1.905435294046E+00 -1.997611296498E+00 -2.193261993743E-02 4.609482812500E-02 -2.716049285169E-02 2.092313989857E-01 6.949447497638E-02 -6.525021504059E-01 3.714889819225E-02 3.401608500230E-02 3.646662742274E-03 -1.516822391676E-01 -9.807421158656E-03 1.601643195826E-01 1.295110325005E-02 -4.204248069620E-02 -4.466873042019E-02 -1.970742041353E-02 1.724281078450E-01 7.934502607892E-02 -2.472182738728E-01 -5.579983931809E-02 -6.917798845819E-02 -7.219305076354E-02 -1.018872855095E-02 -2.162839347963E-02 6.843604757528E-03 2.041940035014E-02 9.064519500000E-03 -5.165603097318E-02 8.740627478354E-02 -6.654025075906E-02 -1.338296147293E-01 6.164729706305E-01 7.947675610134E-01 -1.335437492846E+00 8.501778551697E-01 6.498940383943E-01 3.693581259119E-02 -4.101680664168E-02 -1.590446971258E-02 -1.921119829262E-01 -3.983639452513E-01 2.104700950998E-01 1.857299731334E+00 1.576732451676E+00 8.988479534095E-01 1.228743334168E-01
 2.923098900579E+00 -2.037639219226E+00 -1.034740588992E+00 -3.178819573729E+00 -3.628510982389E+00 -5.995950042021E+00 -3.760576904948E-01 6.021870684700E-02 -7.999876354886E-02 -6.022738830975E-01 -5.316878314598E-02 1.094342053422E+00 3.383144189574E-01 -1.604984292283E-01 -1.902794313515E-01 -5.462890647132E-01 5.589133749328E-01 6.518263368566E-01 -1.788348886498E-01 -2.634303096574E-02 -4.091565595983E-01 4.860696711334E-01 6.942588475092E-02 -3.971497200927E-02 1.383575623179E-01 -7.077946436435E-01 -1.052125196909E-01 1.471780049622E-02 -1.107153911186E-01 2.909837875913E-03 -5.508014019120E-02 1.688634282436E-01 1.534246100330E-01 -1.606020470009E-01 3.831690831558E-03 1.095276279758E-01 1.546691458274E+00 1.979139537359E+00 5.651604674413E+00 -3.265261005080E+00 1.816529763696E+00 3.175162500975E-01 2.069783603742E-01 -1.985868944096E-01 -9.273862466819E-02 2.221698866889E-01 5.831636842077E-01 -6.250958526570E-01 2.660403664164E+00 1.057479551506E+00 7.178856223195E-01 -6.004441212547E-02 5.303236886103E-01
 -7.080658295562E+00 5.219005952411E+00 3.165973433597E+00 9.738204531606E+00 9.862779233074E+00 6.282540805071E+00 -4.038452011064E-02 4.822166654173E-02 -1.013660190496E-01 7.316068080148E-01 2.825165601469E-01 -2.406106015258E+00 5.029790114919E-02 -5.671320292695E-02 1.418455561258E-01 -6.047018358569E-01 4.228219870686E-02 6.635081500898E-01 6.960856529359E-02 -2.260021660444E-01 -2.369410264077E-01 -1.635328257162E-01 6.787015722933E-01 2.962902113742E-01 -6.994413020846E-01 -4.504641498008E-01 -4.185230747731E-01 -1.921012417499E-01 4.509240639839E-02 -2.125935033165E-01 1.661914374158E-02 3.194205753293E-02 -1.572957618164E-02 2.056830592216E-01 1.120040205032E-01 -1.592537970615E-01 -1.074336399449E-02 -3.342198714588E-01 -1.979575651782E+00 8.413461139439E+00 -5.049245811778E+00 -9.289434110919E-01 1.412336029814E-01 -1.479419357084E-01 2.271718170734E-02 1.015496567198E-02 -1.672359659411E+00 9.642402458772E-01 -1.066908089491E+01 -8.060963630723E+00 -6.016260437762E+00 1.148798019174E-01 -1.613500950411E-01 7.101970615338E-01