#BIOSYM hessian 1
@Type: Hessian Update
@Units
 distance: 	A
 energy: 	Kcal/Mol
#header
@natom 11

#label
L1      L2      L3      L4      L5      L6      L7      L8      L9      L10     L11

#element
Li Li Li Li Li Li Li Li Li Li Li

#matrix
33
 2.641825111844E+01
 -1.316033654292E+01 3.166258206826E+01
 1.363097424203E+00 -1.003387789461E+00 2.529497363959E+01
 -4.570231983466E-01 1.826758190807E+00 -1.356410986676E+00 2.481691694507E+01
 4.975953627515E+00 -1.712770556775E+01 -1.436660142638E+00 5.899771093459E+00 2.658512771789E+01
 -2.720070361891E+00 8.335290274166E-01 2.541932612249E+00 6.124019077595E+00 5.439645029730E+00 3.063422500135E+01
 6.498327234487E-01 1.108031028400E+00 1.777803703068E+00 -1.108107956091E+01 3.453180232158E+00 2.067305509666E+00 2.524768334450E+01
 6.459690354573E-01 3.437108609088E-01 -2.479250204009E+00 2.376355853644E-01 -4.194637620679E+00 -2.441531787500E+00 -1.018235275922E+01 2.750521624847E+01
 9.424455806737E-02 9.183589916878E-01 2.206257217259E-01 -1.406019382810E+00 -4.230319480938E+00 -4.593418942436E-01 -7.222951434061E+00 8.190359746236E+00 2.812045668733E+01
 -1.254731612814E+01 4.199899062631E+00 3.155512450017E+00 2.890999029622E+00 1.641288150824E-01 3.635045044929E-01 -4.456285321532E-01 4.273657227322E-02 1.142400383596E+00 2.132454235443E+01
 8.438455747045E-01 -6.920794931112E-01 1.890300681626E+00 -1.223500263069E+00 2.835853357990E+00 -1.555952858767E+00 4.327166800643E+00 -1.361276329831E+01 8.705130648909E-01 6.434283030118E+00 2.277240183617E+01
 1.981604674487E+00 1.419672832212E+00 2.667003942630E-01 -1.450860738395E+00 -1.389662366925E+00 2.673603466542E+00 1.873141358768E+00 2.449366163247E-01 2.413378164247E+00 -7.044264946113E+00 -5.397857251656E+00 2.773963634944E+01
 -4.167843659833E-01 -6.255552537163E-01 -3.701027739645E+00 -1.098563651405E+00 2.197003031057E+00 -1.336553181057E+00 -1.979196118288E-02 1.917558937157E+00 -2.464254799473E+00 6.498682337776E-01 -1.579640374392E+00 -1.663229655007E+00 4.247461424238E+01
 -1.701771435296E+00 -2.122441232263E+00 -1.590841495618E-01 5.098445521200E-02 -8.441251587736E-02 2.523083335284E-01 7.934740174576E-01 1.198201748826E+00 5.205607985314E-01 -5.655038086869E-01 -3.032020130085E+00 1.458711444449E+00 -6.341591381682E-01 7.359334114825E+00
 2.901446381545E+00 3.476505443467E-01 -6.875090233271E+00 1.736407024899E+00 1.185920997401E+00 -3.151679503606E+00 5.702818595542E-01 -1.204866710476E+00 1.385388734597E+00 -8.857643103213E-01 -3.524762827421E-01 3.017506243384E+00 -3.736123020400E+00 -5.369385822196E-01 2.255427323362E+01
 -9.792966825950E-01 4.314869484925E-01 -1.123045772890E-01 -2.697575074977E-01 6.085069110724E-01 6.417426814459E-02 -2.075778203838E+00 -6.627335044388E-01 1.141367338265E+00 -9.024224091057E-01 -2.585912094061E+00 3.520859240780E-01 9.157085968654E-01 2.285627527145E+00 -3.473590778570E-01 5.452728474842E+00
 6.490356325229E-01 1.702991042320E+00 -6.159024014566E-01 2.893015149353E+00 7.963666623629E-01 2.220349244036E-01 -2.168771682681E-01 -1.620338343147E+00 -1.772250049418E+00 -6.701545911813E-01 -1.740500526984E+00 1.430614058517E-01 5.075448010509E+00 -1.525707678356E+00 -1.198126479865E+00 -2.359497563516E+00 4.365172890908E+01
 7.233105999234E-01 -1.163042109841E+00 2.660823676987E-01 -1.920594113637E-01 2.059154458191E+00 -4.502196930191E+00 -8.016220828151E-01 2.589622172810E+00 -8.625810407462E+00 1.871389071315E-01 9.518562708472E-02 -3.896768480682E-01 1.472239719982E+00 -1.341374513134E+00 -7.827435579360E-01 -1.744403284558E+00 -1.122680072080E+01 1.971297467121E+01
 1.119561287827E+00 -2.779712258186E-01 -2.167816045577E+00 -1.714912548111E+00 -1.317857719511E+00 -7.317551836111E-01 -6.433269967703E-01 -2.344318960041E+00 2.993138247113E+00 -1.026719927051E+00 3.054507014412E+00 1.299966158016E-01 -3.957419356092E+00 -4.279664348788E-01 -5.193934548503E-02 -1.160577823467E+00 -6.595700668339E+00 -3.813691153803E-01 4.271534696687E+01
 3.176405175038E-01 1.374615283681E+00 1.495162344389E+00 2.315993127227E-01 -4.614233045463E-01 1.435153996320E-01 -1.598970608759E-01 -3.147833360864E+00 -1.869141354780E+00 1.040499683538E+00 2.177979759917E+00 1.017819614657E+00 -3.538261039161E+00 -2.470480013295E+00 3.340192307247E-01 -2.378883114501E+00 -9.922620987043E-01 2.360613665834E+00 -1.543273993139E+00 6.323624107836E+00
 8.290803639142E-02 -2.198147661492E-01 1.424380320233E-01 1.162664185907E+00 1.101192342771E+00 8.802512916432E-01 -1.183551291377E+00 -1.285419751091E+00 -7.706297116443E+00 -1.689370907777E+00 1.111941271653E-01 -3.489024003040E+00 2.160992505023E+00 -1.394028734330E-01 -1.309408170172E+00 3.848316364587E-01 2.604396205422E-03 2.868246218878E+00 8.259617233814E+00 -4.220241063229E-01 1.451382322460E+01
 -1.376899982058E+00 -6.055383642247E-01 -1.090518034509E-01 5.839236088221E-01 -1.827492474959E+00 1.414499097955E-02 -1.978863461366E-01 1.117450194310E+00 8.904691459338E-02 -1.737591207571E+00 2.698792082529E+00 3.031689718071E-01 -4.086028683718E+00 -4.824943131706E+00 -1.356461352156E+00 -2.213250716570E+00 -5.735198450171E-01 1.331802620513E+00 -1.666430874036E+00 3.853672371820E+00 1.466853671607E-03 1.278079351462E+01
 -1.734174362901E+00 3.169788200113E+00 2.811247832593E+00 -3.963487925784E-02 -1.477920428715E+00 9.175168438155E-02 -9.005068579854E-01 -1.114110940174E+00 1.856193343259E+00 1.789183573429E+00 -8.232518491996E-01 7.112810916220E-01 -5.924623798976E+00 -2.305922476540E+00 3.948320335325E-01 -1.419259201012E+00 2.741432536216E-01 -3.576527528437E+00 2.049560395138E+00 2.062090299322E+00 -1.244518159419E+00 -4.366941981960E+00 4.768593135409E+01
 -2.318397996478E+00 1.888799512060E+00 -6.982457257619E+00 -3.772719127878E-02 -2.141981340391E+00 -6.034165211280E-01 -8.094979284437E-01 7.295023943241E-01 -3.890125951915E-01 4.802422054952E-01 -2.250612623462E+00 -4.185531395075E+00 -1.815846578693E-01 -6.662217774159E-02 2.212079474589E+00 -1.658071729175E-01 2.635171935441E+00 -1.534793636440E+00 -5.468275591107E-01 8.546271378745E-02 4.718741257708E-01 -2.852598323542E-01 5.700507672606E+00 1.835817181251E+01
 -6.578639483302E+00 7.350630306758E+00 -3.001747675483E+00 -8.739364092225E+00 -1.104662665136E+01 -1.062819585171E+01 -9.689973758323E+00 7.548769107180E+00 8.567568088593E+00 -4.290819551218E+00 -5.758691674474E+00 9.316825087417E+00 -2.722311382861E+01 2.578018400418E+00 1.071553884688E+01 4.433517397784E-01 1.168060301707E+00 -7.828702165177E-01 -2.561985080247E+01 2.751617354877E+00 -1.193681794166E+01 -1.217071619753E+00 7.914356097921E+00 2.465759509931E+00 8.160156277723E+01
 7.647401565018E+00 -1.232955807512E+01 2.884645243225E+00 -5.454126222609E+00 -1.539831503799E+00 -7.684647821171E+00 1.191246444955E+00 -4.908667202561E+00 -6.039817651060E+00 -8.571008860085E+00 -3.999645072893E+00 6.139274889743E+00 1.734968154474E+00 2.082546364777E+00 -1.738424200858E+00 4.032968818872E+00 -3.156238275582E+01 1.385551543007E+01 5.862829653645E+00 -1.272557381932E+00 5.555087550780E-01 2.560117485863E+00 -3.197389341255E+01 -1.046030104221E+01 -7.360011456874E+00 7.824294601296E+01
 -4.653438681477E+00 4.032064859730E+00 -6.082044998103E+00 -7.672735489192E+00 -6.712244006446E+00 -1.183377190061E+01 7.131671128506E+00 -3.593939241892E+00 -8.602004344113E+00 7.992173372978E+00 9.233548774376E+00 -1.367347856267E+01 1.382997377867E+01 -1.598007856620E+00 -6.773542929156E+00 -9.777954603269E-01 1.310007490618E+01 -3.746623875234E-01 -9.650753558484E+00 -3.206455537255E+00 -1.582758418161E+00 1.237501568856E+00 -1.416086776281E+01 -1.106008644931E+00 -4.884490659086E+00 1.513630099052E+00 5.285518533894E+01
 3.702121128797E-02 -1.234031164031E+00 1.084899385104E+00 -2.968201950660E-02 1.848548783359E-01 1.267472008274E+00 7.737904849979E-01 1.260700595268E+00 -5.500434472318E-01 -7.694105959115E-01 -1.693639014437E+00 -5.013137255467E-01 -7.596976452106E+00 2.042351394948E+00 -8.559458262014E+00 -5.754398634215E-01 1.255761440077E+00 5.847875268266E-01 -6.011954264310E+00 -1.984315982252E-01 2.437143783215E+00 -1.314160003450E+00 1.834320088255E+00 -3.656888430811E-02 -7.606939082627E-01 -2.319739429878E+00 -3.729976221218E-01 1.463832213322E+01
 -2.377603423682E-01 2.143511648620E-01 -8.285982913358E-01 -2.586695541751E+00 -2.808151958809E+00 -5.740398215788E-02 1.872125927962E+00 7.988468966661E-01 1.109334219853E-01 -4.934170307948E-01 -9.088376543534E-02 -1.339302235616E+00 1.074232774353E+00 -2.524563071410E-01 2.423674994408E+00 1.408038043324E+00 -6.534238401326E+00 -3.559417787201E+00 4.627572556170E-01 -2.640174045040E+00 9.133933626320E-01 1.901246913015E+00 -1.255304226630E+01 4.995456259668E+00 -2.943673071879E+00 3.548058640908E+00 2.271076292670E+00 -2.076289668857E+00 1.685290741102E+01
 -4.942128745781E-01 -3.398465613087E+00 -9.467261986882E-01 -2.186237679052E+00 -1.467280709664E+00 -5.469759609583E+00 -9.330547911446E-01 -1.537616064292E+00 5.754136803739E-01 1.170201427805E+00 6.782353841982E-01 -3.312861717257E+00 -6.003612489631E+00 1.459957509075E+00 -8.466989732608E+00 4.034440447790E-01 -3.592866953961E+00 -6.631218866242E+00 3.677446635895E+00 1.122433550010E+00 -5.636529430970E+00 -2.451893984400E-01 6.833428565096E+00 -6.931641273318E+00 2.185197008047E+00 2.497753328720E+00 -5.780303243872E+00 3.177504901521E+00 -3.909697088198E+00 4.429107487824E+01
 -5.868706500571E+00 9.866270136190E-01 3.067045865729E+00 -4.901457005509E+00 -3.291421742848E+00 5.515954219121E+00 -2.517841193626E+00 4.185851966920E-01 -2.384496466653E+00 -3.145501266674E+00 -4.517211081973E+00 -3.297153567297E+00 3.584872260676E-01 4.038881535550E-01 -9.865687446400E-01 1.364734395010E+00 -6.255706978477E-01 -3.969552637425E-01 -2.033715662390E+00 -3.762824345590E-01 3.201159063353E-01 4.446023098491E-01 7.977209273494E-01 1.435669507334E+00 2.074612527161E+00 6.753538466190E-01 -1.979108378325E+00 1.609183277459E+00 1.619434741379E+00 -7.514867852004E-01 1.261560189322E+01
 1.754196730761E+00 -6.196254251890E+00 -2.558473123371E+00 -1.835806880231E+00 -2.523264838064E+00 4.756752050504E+00 -1.285590605223E+00 -1.247624989135E+00 1.444609169606E+00 -3.370646446323E+00 -3.795090818054E+00 -3.007936040662E+00 3.030286968639E-01 1.153358125130E+00 3.447344557479E-01 6.396572286225E-01 -2.449800063052E+00 -9.292869457197E-02 1.077434682916E+00 -9.535792463738E-01 6.272866725624E-01 6.715675032958E-02 -2.943811733668E+00 -1.115383304082E+00 -2.202448714272E+00 3.712984386028E+00 -8.788805269822E-01 9.441424785431E-01 3.464782630597E+00 1.314118092103E+00 3.908876078014E+00 1.177830079848E+01
 3.039508239807E+00 -3.655365488915E+00 -7.846434079870E+00 5.278960590368E+00 7.592235218909E+00 -1.070984601242E+01 -2.469526031722E+00 7.882028295657E-01 -6.932796630821E+00 -4.871773087305E+00 -3.322078642713E+00 -1.106025209176E+01 1.623179539404E+00 1.498920671274E-01 -1.809793559437E+00 1.001766361222E+00 2.302999037421E+00 -6.200623926295E-03 -1.529737924975E+00 -1.061405520677E+00 8.473842458661E-01 -9.811695340199E-01 5.826712275760E-01 6.907359108313E-01 -2.016766196401E+00 -1.523137030587E+00 2.953390090199E+00 1.468574336281E+00 -1.020114946854E+00 -1.690458486071E+00 -5.430162926613E-01 -8.338987508532E-01 3.556427123741E+01

