#BIOSYM hessian 1
@Type: Hessian Update
@Units
 distance: 	A
 energy: 	Kcal/Mol
#header
@natom 3

#label
L1      L2      L3

#element
Li Li Li

#matrix
9
 1.439525769626E+01
 3.338503537196E+00 4.835948452994E+00
 5.636390883112E+00 4.344031037806E+00 4.477505128364E+00
 -1.142931523557E+01 -1.932209764330E+00 -3.937924811667E+00 1.408288956413E+01
 4.185816721134E+00 4.631812103249E+00 4.376238811468E+00 -8.898159322068E+00 1.244881498254E+01
 6.364163975660E-01 3.041623287153E+00 2.412999352746E+00 -3.580889014749E+00 7.366673864319E+00 4.726780740702E+00
 -2.965942460688E+00 -1.406293772865E+00 -1.698466071445E+00 -2.653574328562E+00 4.712342600934E+00 2.944472617183E+00 5.619516789251E+00
 -7.524320258330E+00 -9.467760556243E+00 -8.720269849275E+00 1.083036908640E+01 -1.708062708579E+01 -1.040829715147E+01 -3.306048828069E+00 2.654838764203E+01
 -6.272807280678E+00 -7.385654324960E+00 -6.890504481110E+00 7.518813826416E+00 -1.174291267579E+01 -7.139780093448E+00 -1.246006545738E+00 1.912856700075E+01 1.403028457456E+01

