 Job started on host DESKTOP-5CQNRD0
 at Thu Aug  1 13:35:01 2019

 +-------------------------------------------------+
 |                                                 |
 |      CCC   AA    SSS  TTTTT  EEEEE  PPPP        |
 |     C     A  A  S       T    E      P   P       |
 |     C     AAAA   SS     T    EEE    PPPP        |
 |     C     A  A     S    T    E      P           |
 |      CCC  A  A  SSS     T    EEEEE  P           |
 |                                                 |
 +-------------------------------------------------+
 |                                                 |
 | Materials Studio CASTEP version 2017            |
 | Ab Initio Total Energy Program                  |
 |                                                 |
 | Authors:                                        |
 | M. Segall, M. Probert, C. Pickard, P. Hasnip,   |
 | S. Clark, K. Refson, J. R. Yates, M. Payne      |
 |                                                 |
 | Contributors:                                   |
 | P. Lindan, P. Haynes, J. White, V. Milman,      |
 | N. Govind, M. Gibson, P. Tulip, V. Cocula,      |
 | B. Montanari, D. Quigley, M. Glover,            |
 | L. Bernasconi, A. Perlov, M. Plummer,           |
 | E. McNellis, J. Meyer, J. Gale, D. Jochym       |
 | J. Aarons, B. Walker, R. Gillen, D. Jones       |
 | T. Green, I. J. Bush, C. J. Armstrong,          |
 | E. J. Higgins, E. L. Brown, M. S. McFly         |
 |                                                 |
 | Copyright (c) 2000 - 2016                       |
 |                                                 |
 | Please cite                                     |
 |                                                 |
 |     "First principles methods using CASTEP"     |
 |                                                 |
 |         Zeitschrift fuer Kristallographie       |
 |           220(5-6) pp. 567-570 (2005)           |
 |                                                 |
 | S. J. Clark, M. D. Segall, C. J. Pickard,       |
 | P. J. Hasnip, M. J. Probert, K. Refson,         |
 | M. C. Payne                                     |
 |                                                 |
 |       in all publications arising from          |
 |              your use of CASTEP                 |
 |                                                 |
 +-------------------------------------------------+
 
 
 This version was compiled for x86_64-windows-msvc2008 on May 05 2016
 Intel(R) Math Kernel Library Version 11.1.2 
 Fundamental constants values: CODATA 2010
 
License checkout of MS_castep successful
 
 
 Atomic calculation performed for C: 1s2 2s2 2p2
 
 Converged in 54 iterations to an ae energy of -1027.632 eV
 
 Identity difference: 2.37E-04
 
   ============================================================                
   | Pseudopotential Report - Date of generation  1-08-2019   |                
   ------------------------------------------------------------                
   | Element: C Ionic charge:  4.00 Level of theory: PBE      |                
   | Atomic Solver: Koelling-Harmon                           |                
   |                                                          |                
   |               Reference Electronic Structure             |                
   |         Orbital         Occupation         Energy        |                
   |            2s              2.000           -0.505        |                
   |            2p              2.000           -0.194        |                
   |                                                          |                
   |                 Pseudopotential Definition               |                
   |        Beta     l      e      Rc     scheme   norm       |                
   |          1      0   -0.505   1.395     qc      0         |                
   |          2      0    0.250   1.395     qc      0         |                
   |          3      1   -0.194   1.395     qc      0         |                
   |          4      1    0.250   1.395     qc      0         |                
   |         loc     2    0.000   1.395     pn      0         |                
   |                                                          |                
   | Augmentation charge Rinner = 0.983                       |                
   | Partial core correction Rc = 0.983                       |                
   ------------------------------------------------------------                
   | "2|1.4|11|12|14.7|20UU:21UU(qc=7)[]"                     |                
   ------------------------------------------------------------                
   |      Author: Chris J. Pickard, Cambridge University      |                
   ============================================================                
 
 Doing a self consistent calculation for the test configuration
 
 Atomic calculation performed for C: 1s2 2s2 2p2
 
 Converged in 54 iterations to an ae energy of -1027.632 eV
 
 ---------------------------------------
 AE eigenvalue nl 10 =      -10.04653081
 AE eigenvalue nl 20 =       -0.50533429
 AE eigenvalue nl 21 =       -0.19423807
 ---------------------------------------
 PS eigenvalue nl 20 =       -0.50531853
 PS eigenvalue nl 21 =       -0.19422214
 ---------------------------------------
 Maximum eigenvalue error:   1.59E-05
 
 Derived cutoff energies: C=   6 M=  10 F=  12 E=  16
 
 
 ***************************************
 
 Atomic calculation performed for O: 1s2 2s2 2p4
 
 Converged in 61 iterations to an ae energy of -2040.902 eV
 
 Identity difference: 4.10E-04
 
   ============================================================                
   | Pseudopotential Report - Date of generation  1-08-2019   |                
   ------------------------------------------------------------                
   | Element: O Ionic charge:  6.00 Level of theory: PBE      |                
   | Atomic Solver: Koelling-Harmon                           |                
   |                                                          |                
   |               Reference Electronic Structure             |                
   |         Orbital         Occupation         Energy        |                
   |            2s              2.000           -0.881        |                
   |            2p              4.000           -0.332        |                
   |                                                          |                
   |                 Pseudopotential Definition               |                
   |        Beta     l      e      Rc     scheme   norm       |                
   |          1      0   -0.881   1.100     qc      0         |                
   |          2      0    0.250   1.100     qc      0         |                
   |          3      1   -0.332   1.100     qc      0         |                
   |          4      1    0.250   1.100     qc      0         |                
   |         loc     2    0.000   1.100     pn      0         |                
   |                                                          |                
   | Augmentation charge Rinner = 0.769                       |                
   | Partial core correction Rc = 0.769                       |                
   ------------------------------------------------------------                
   | "2|1.1|14|18|21|20UU:21UU(qc=7)[]"                       |                
   ------------------------------------------------------------                
   |      Author: Chris J. Pickard, Cambridge University      |                
   ============================================================                
 
 Doing a self consistent calculation for the test configuration
 
 Atomic calculation performed for O: 1s2 2s2 2p4
 
 Converged in 61 iterations to an ae energy of -2040.902 eV
 
 ---------------------------------------
 AE eigenvalue nl 10 =      -18.91475256
 AE eigenvalue nl 20 =       -0.88057101
 AE eigenvalue nl 21 =       -0.33186952
 ---------------------------------------
 PS eigenvalue nl 20 =       -0.88059206
 PS eigenvalue nl 21 =       -0.33182157
 ---------------------------------------
 Maximum eigenvalue error:   4.80E-05
 
 Derived cutoff energies: C=  14 M=  17 F=  20 E=  22
 
 
 ***************************************
 
 Atomic calculation performed for Pd:
 1s2 2s2 2p6 3s2 3p6 3d10 4s2 4p6 4d10 5s0.5
 
 Converged in 117 iterations to an ae energy of -137306.547 eV
 
 Identity difference: 4.15E-03
 
 Warning: ion_atom_descreen_psp: negative charge density encountered
   ============================================================                
   | Pseudopotential Report - Date of generation  1-08-2019   |                
   ------------------------------------------------------------                
   | Element: Pd Ionic charge: 18.00 Level of theory: PBE     |                
   | Atomic Solver: Koelling-Harmon                           |                
   |                                                          |                
   |               Reference Electronic Structure             |                
   |         Orbital         Occupation         Energy        |                
   |            4s              2.000           -3.024        |                
   |            4p              6.000           -1.769        |                
   |            4d             10.000           -0.035        |                
   |            5s              0.500           -0.024        |                
   |                                                          |                
   |                 Pseudopotential Definition               |                
   |        Beta     l      e      Rc     scheme   norm       |                
   |          1      0   -3.024   1.602     qc      0         |                
   |          2      0   -0.024   1.602     qc      0         |                
   |          3      0    0.250   1.602     qc      0         |                
   |          4      1   -1.769   1.602     qc      0         |                
   |          5      1    0.250   1.602     qc      0         |                
   |          6      2   -0.035   1.602     qc      0         |                
   |          7      2    0.250   1.602     qc      0         |                
   |         loc     3    0.000   1.602     pn      0         |                
   |                                                          |                
   | Augmentation charge Rinner = 1.120                       |                
   | Partial core correction Rc = 1.120                       |                
   ------------------------------------------------------------                
   | "3|1.6|15|18.8|20.6|40U:50UU:41UU:42UU{5s0.5}(qc=7)[]"   |                
   ------------------------------------------------------------                
   |      Author: Chris J. Pickard, Cambridge University      |                
   ============================================================                
 
 Doing a self consistent calculation for the test configuration
 
 Atomic calculation performed for Pd:
 1s2 2s2 2p6 3s2 3p6 3d10 4s2 4p6 4d10 5s0.5
 
 Converged in 117 iterations to an ae energy of -137306.547 eV
 
 ---------------------------------------
 AE eigenvalue nl 10 =     -887.98549682
 AE eigenvalue nl 20 =     -129.55227025
 AE eigenvalue nl 21 =     -116.13666558
 AE eigenvalue nl 30 =      -23.26518136
 AE eigenvalue nl 31 =      -18.85550066
 AE eigenvalue nl 32 =      -11.85263732
 AE eigenvalue nl 40 =       -3.02406957
 AE eigenvalue nl 41 =       -1.76878223
 AE eigenvalue nl 42 =       -0.03486337
 AE eigenvalue nl 50 =       -0.02425157
 ---------------------------------------
 PS eigenvalue nl 40 =       -3.02358228
 PS eigenvalue nl 41 =       -1.76830313
 PS eigenvalue nl 42 =       -0.03447713
 PS eigenvalue nl 50 =       -0.02390852
 ---------------------------------------
 Maximum eigenvalue error:   4.87E-04
 
 Derived cutoff energies: C=  14 M=  17 F=  20 E=  22
 
 
 ***************************************
 
 Pseudo atomic calculation performed for C 2s2 2p2
 
 Converged in 18 iterations to a total energy of -148.5199 eV
 
 
 Pseudo atomic calculation performed for O 2s2 2p4
 
 Converged in 24 iterations to a total energy of -432.6196 eV
 
 
 Pseudo atomic calculation performed for Pd 4s2 4p6 4d10 5s0.5
 
 Converged in 64 iterations to a total energy of -3490.1082 eV
 
 Calculation parallelised over 2 processes.
 Data is distributed by k-point(2-way)

 ************************************ Title ************************************
 CASTEP calculation from Materials Studio

 ***************************** General Parameters ******************************
  
 output verbosity                               : normal  (1)
 write checkpoint data to                       : _1x1__CO_on_Pd__1_1_0_.check
 type of calculation                            : geometry optimization
 stress calculation                             : off
 density difference calculation                 : off
 electron localisation func (ELF) calculation   : off
 Hirshfeld analysis                             : off
 unlimited duration calculation
 timing information                             : on
 memory usage estimate                          : on
 write final potential to formatted file        : off
 write final density to formatted file          : off
 write BibTeX reference list                    : on
 write OTFG pseudopotential files               : on
 checkpoint writing                             : both castep_bin and check files
  
 output         length unit                     : A
 output           mass unit                     : amu
 output           time unit                     : ps
 output         charge unit                     : e
 output           spin unit                     : hbar/2
 output         energy unit                     : eV
 output          force unit                     : eV/A
 output       velocity unit                     : A/ps
 output       pressure unit                     : GPa
 output     inv_length unit                     : 1/A
 output      frequency unit                     : cm-1
 output force constant unit                     : eV/A**2
 output         volume unit                     : A**3
 output   IR intensity unit                     : (D/A)**2/amu
 output         dipole unit                     : D
 output         efield unit                     : eV/A/e
 output        entropy unit                     : J/mol/K
  
 wavefunctions paging                           : none
 random number generator seed                   : randomised (133525456)
 data distribution                              : optimal for this architecture
 optimization strategy                          : balance speed and memory

 *********************** Exchange-Correlation Parameters ***********************
  
 using functional                               : Perdew Burke Ernzerhof
 relativistic treatment                         : Koelling-Harmon
 DFT+D: Semi-empirical dispersion correction    : off

 ************************* Pseudopotential Parameters **************************
  
 pseudopotential representation                 : reciprocal space
 <beta|phi> representation                      : reciprocal space
 spin-orbit coupling                            : off

 **************************** Basis Set Parameters *****************************
  
 plane wave basis set cut-off                   :   571.4000   eV
 size of standard grid                          :     1.7500
 size of   fine   grid                          :     2.1000
 size of   fine   gmax                          :    25.7175   1/A
 largest prime factor in FFT                    :          5
 finite basis set correction                    : none

 **************************** Electronic Parameters ****************************
  
 number of  electrons                           :  64.00    
 net charge of system                           :  0.000    
 treating system as non-spin-polarized
 number of bands                                :         39

 ********************* Electronic Minimization Parameters **********************
  
 Method: Treating system as metallic with density mixing treatment of electrons,
         and number of  SD  steps               :          1
         and number of  CG  steps               :          4
  
 total energy / atom convergence tol.           : 0.1000E-05   eV
 eigen-energy convergence tolerance             : 0.1282E-06   eV
 max force / atom convergence tol.              : ignored
 convergence tolerance window                   :          3   cycles
 max. number of SCF cycles                      :        100
 number of fixed-spin iterations                :         10
 smearing scheme                                : Gaussian
 smearing width                                 : 0.1000       eV
 Fermi energy convergence tolerance             : 0.2721E-13   eV
 periodic dipole correction                     : NONE

 ************************** Density Mixing Parameters **************************
  
 density-mixing scheme                          : Pulay
 max. length of mixing history                  :         20
 charge density mixing amplitude                : 0.5000    
 cut-off energy for mixing                      :  571.4       eV
 charge density mixing g-vector                 :  1.500       1/A

 ********************** Geometry Optimization Parameters ***********************
  
 optimization method                            : BFGS
 variable cell method                           : fixed basis quality
 max. number of steps                           :        100
 estimated bulk modulus                         :  500.0       GPa
 estimated <frequency>                          :  1668.       cm-1
 geom line minimiser                            : on
 with line minimiser tolerance                  :     0.4000
 total energy convergence tolerance             : 0.1000E-04   eV/atom
        max ionic |force| tolerance             : 0.3000E-01   eV/A
 max ionic |displacement| tolerance             : 0.1000E-02   A
   max |stress component| tolerance             : 0.5000E-01   GPa
 convergence tolerance window                   :          2   steps
 backup results every                           :          5   steps

 *******************************************************************************
  
 
                           -------------------------------
                                      Unit Cell
                           -------------------------------
        Real Lattice(A)                      Reciprocal Lattice(1/A)
   3.9632769   0.0000000   0.0000000        1.5853511   0.0000000   0.0000000
   0.0000000   2.8024600   0.0000000        0.0000000   2.2420250   0.0000000
   0.0000000   0.0000000  10.8024600        0.0000000   0.0000000   0.5816439
 
                       Lattice parameters(A)       Cell Angles
                    a =    3.963277          alpha =   90.000000
                    b =    2.802460          beta  =   90.000000
                    c =   10.802460          gamma =   90.000000
 
                       Current cell volume =  119.982113       A**3
 
                           -------------------------------
                                     Cell Contents
                           -------------------------------
                         Total number of ions in cell =    5
                      Total number of species in cell =    3
                        Max number of any one species =    3
 
            xxxxxxxxxxxxxxxxxxxxxxxxxxxxxxxxxxxxxxxxxxxxxxxxxxxxxxxxxxxx
            x  Element    Atom        Fractional coordinates of atoms  x
            x            Number           u          v          w      x
            x----------------------------------------------------------x
            x  C            1        -0.500000   0.000000   0.385865   x 
            x  O            1        -0.500000   0.000000   0.493837   x 
            x  Pd           1        -0.500000   0.500000  -0.000000   x 
            x  Pd           2        -0.500000  -0.500000   0.250521   x 
            x  Pd           3         0.000000   0.000000   0.129714   x 
            xxxxxxxxxxxxxxxxxxxxxxxxxxxxxxxxxxxxxxxxxxxxxxxxxxxxxxxxxxxx
 
 
                         No user defined ionic velocities
 
                           -------------------------------
                                   Details of Species
                           -------------------------------
 
                               Mass of species in AMU
                                    C   12.0109997
                                    O   15.9989996
                                    Pd  106.4000015
 
                          Electric Quadrupole Moment (Barn)
                                    C    0.0332700 Isotope 11
                                    O   -0.0255800 Isotope 17
                                    Pd    0.6600000 Isotope105
 
                          Files used for pseudopotentials:
                                    C 2|1.4|11|12|14.7|20UU:21UU(qc=7)[]
                                    O 2|1.1|14|18|21|20UU:21UU(qc=7)[]
                                    Pd 3|1.6|15|18.8|20.6|40U:50UU:41UU:42UU{5s0.5}(qc=7)[]
 
                           -------------------------------
                              k-Points For BZ Sampling
                           -------------------------------
                       MP grid size for SCF calculation is  3  4  1
                            with an offset of   0.000  0.000  0.000
                       Number of kpoints used =             4
 
                           -------------------------------
                               Symmetry and Constraints
                           -------------------------------
 
                      Maximum deviation from symmetry = 0.622271E-15     ANG
 
                      Number of symmetry operations   =           4
                      Number of ionic constraints     =           6
                      Point group of crystal =     6: C2v, mm2, 2 mm
                      Space group of crystal =    25: Pmm2, P 2 -2
 
             Set iprint > 1 for details on symmetry rotations/translations
 
                         Centre of mass is NOT constrained
             Set iprint > 1 for details of linear ionic constraints
 
                         Number of cell constraints= 6
                         Cell constraints are:  0 0 0 0 0 0
 
                         External pressure/stress (GPa)
                          0.00000   0.00000   0.00000
                                    0.00000   0.00000
                                              0.00000
  
+---------------- MEMORY AND SCRATCH DISK ESTIMATES PER PROCESS --------------+
|                                                     Memory          Disk    |
| Baseline code, static data and system overhead        0.0 MB         0.0 MB |
| BLAS internal memory storage                          0.0 MB         0.0 MB |
| Model and support data                               71.5 MB       157.3 MB |
| Electronic energy minimisation requirements          21.1 MB         0.0 MB |
| Force calculation requirements                       12.1 MB         0.0 MB |
|                                               ----------------------------- |
| Approx. total storage required per process           92.6 MB       157.3 MB |
|                                                                             |
| Requirements will fluctuate during execution and may exceed these estimates |
+-----------------------------------------------------------------------------+
------------------------------------------------------------------------ <-- SCF
SCF loop      Energy           Fermi           Energy gain       Timer   <-- SCF
                               energy          per atom          (sec)   <-- SCF
------------------------------------------------------------------------ <-- SCF
Initial  -1.21704092E+004  0.00000000E+000                        26.75  <-- SCF
      1  -1.08987905E+004  1.33349146E+001  -2.54323729E+002      28.64  <-- SCF
      2  -1.11138708E+004  1.00897766E+001   4.30160633E+001      30.22  <-- SCF
      3  -1.11310972E+004  9.67163674E+000   3.44527513E+000      32.12  <-- SCF
      4  -1.11315270E+004  9.66048362E+000   8.59530560E-002      33.64  <-- SCF
      5  -1.11255751E+004  3.91886422E+000  -1.19038520E+000      35.75  <-- SCF
      6  -1.10822056E+004  3.22237800E+000  -8.67388705E+000      37.70  <-- SCF
      7  -1.10823800E+004  3.22255303E+000   3.48697960E-002      39.23  <-- SCF
      8  -1.10763599E+004  4.13363557E+000  -1.20400709E+000      40.94  <-- SCF
      9  -1.10756091E+004  3.87660609E+000  -1.50169679E-001      42.64  <-- SCF
     10  -1.10754640E+004  3.81194994E+000  -2.90225232E-002      44.66  <-- SCF
     11  -1.10752957E+004  3.73629393E+000  -3.36451813E-002      46.50  <-- SCF
     12  -1.10752801E+004  3.72762730E+000  -3.13852387E-003      48.47  <-- SCF
     13  -1.10752514E+004  3.65021088E+000  -5.72447382E-003      50.31  <-- SCF
     14  -1.10752220E+004  3.48650038E+000  -5.88923712E-003      52.23  <-- SCF
     15  -1.10752185E+004  3.37919863E+000  -7.03036192E-004      54.05  <-- SCF
     16  -1.10752222E+004  3.27119770E+000   7.55092418E-004      55.81  <-- SCF
     17  -1.10752250E+004  3.25907412E+000   5.56640387E-004      57.62  <-- SCF
     18  -1.10752249E+004  3.24415838E+000  -2.40562793E-005      59.31  <-- SCF
     19  -1.10752249E+004  3.24378606E+000   5.09861440E-006      60.83  <-- SCF
     20  -1.10752249E+004  3.24171256E+000  -1.16428013E-006      62.19  <-- SCF
     21  -1.10752249E+004  3.24337476E+000   4.87586298E-007      63.61  <-- SCF
     22  -1.10752249E+004  3.24332055E+000  -9.36487424E-009      64.81  <-- SCF
------------------------------------------------------------------------ <-- SCF
 
Final energy, E             =  -11075.17944476     eV
Final free energy (E-TS)    =  -11075.22493120     eV
(energies not corrected for finite basis set)
 
NB est. 0K energy (E-0.5TS)      =  -11075.20218798     eV
 

Writing analysis data to _1x1__CO_on_Pd__1_1_0_.castep_bin

Writing model to _1x1__CO_on_Pd__1_1_0_.check

WARNING - user ionic constraints and symmetry specified
        - symmetry has precedence over constraints
        - may lead to a conflict?
 
HINT    - if convergence fails try switching symmetry OFF
 
+---------------- MEMORY AND SCRATCH DISK ESTIMATES PER PROCESS --------------+
|                                                     Memory          Disk    |
| Model and support data                               80.7 MB       157.3 MB |
| Electronic energy minimisation requirements          21.1 MB         0.0 MB |
| Geometry minimisation requirements                   26.3 MB         0.0 MB |
|                                               ----------------------------- |
| Approx. total storage required per process          128.1 MB       157.3 MB |
|                                                                             |
| Requirements will fluctuate during execution and may exceed these estimates |
+-----------------------------------------------------------------------------+
 
 
 *********************************** Forces ***********************************
 *                                                                            *
 *                        Cartesian components (eV/A)                         *
 * -------------------------------------------------------------------------- *
 *                   x                    y                    z              *
 *                                                                            *
 * C         1      0.00000              0.00000              0.02962         *
 * O         1      0.00000              0.00000              0.03598         *
 * Pd        1      0.00000(cons'd)      0.00000(cons'd)      0.46971(cons'd) *
 * Pd        2      0.00000              0.00000              0.03139         *
 * Pd        3      0.00000(cons'd)      0.00000(cons'd)     -0.56670(cons'd) *
 *                                                                            *
 ******************************************************************************
 BFGS: finished iteration     0 with enthalpy= -1.10752249E+004 eV
  
 +-----------+-----------------+-----------------+------------+-----+ <-- BFGS
 | Parameter |      value      |    tolerance    |    units   | OK? | <-- BFGS
 +-----------+-----------------+-----------------+------------+-----+ <-- BFGS
 |  dE/ion   |   0.000000E+000 |   1.000000E-005 |         eV | No  | <-- BFGS
 |  |F|max   |   3.598277E-002 |   3.000000E-002 |       eV/A | No  | <-- BFGS
 |  |dR|max  |   0.000000E+000 |   1.000000E-003 |          A | No  | <-- BFGS
 +-----------+-----------------+-----------------+------------+-----+ <-- BFGS
  

================================================================================
 Starting BFGS iteration          1 ...
================================================================================
  
 +------------+-------------+-------------+-----------------+ <-- min BFGS
 |    Step    |   lambda    |   F.delta'  |    enthalpy     | <-- min BFGS
 +------------+-------------+-------------+-----------------+ <-- min BFGS
 |  previous  |    0.000000 |    0.022306 |   -11075.224931 | <-- min BFGS
 +------------+-------------+-------------+-----------------+ <-- min BFGS
  

--------------------------------------------------------------------------------
 BFGS: starting iteration         1 with trial guess (lambda=  1.000000)
--------------------------------------------------------------------------------
 
                           -------------------------------
                                     Cell Contents
                           -------------------------------
 
            xxxxxxxxxxxxxxxxxxxxxxxxxxxxxxxxxxxxxxxxxxxxxxxxxxxxxxxxxxxx
            x  Element    Atom        Fractional coordinates of atoms  x
            x            Number           u          v          w      x
            x----------------------------------------------------------x
            x  C            1        -0.500000   0.000000   0.385868   x
            x  O            1        -0.500000   0.000000   0.493842   x
            x  Pd           1        -0.500000   0.500000  -0.000000   x
            x  Pd           2        -0.500000  -0.500000   0.250525   x
            x  Pd           3         0.000000   0.000000   0.129714   x
            xxxxxxxxxxxxxxxxxxxxxxxxxxxxxxxxxxxxxxxxxxxxxxxxxxxxxxxxxxxx
 
 
------------------------------------------------------------------------ <-- SCF
SCF loop      Energy           Fermi           Energy gain       Timer   <-- SCF
                               energy          per atom          (sec)   <-- SCF
------------------------------------------------------------------------ <-- SCF
Initial  -1.10751691E+004  0.00000000E+000                        66.48  <-- SCF
      1  -1.10752249E+004  3.24342363E+000   1.11636451E-002      67.66  <-- SCF
      2  -1.10752249E+004  3.24342362E+000   2.81314363E-008      68.78  <-- SCF
      3  -1.10752249E+004  3.24362033E+000   2.38205377E-009      69.92  <-- SCF
      4  -1.10752249E+004  3.24344945E+000   1.17209420E-008      71.06  <-- SCF
------------------------------------------------------------------------ <-- SCF
 
Final energy, E             =  -11075.17944371     eV
Final free energy (E-TS)    =  -11075.22493101     eV
(energies not corrected for finite basis set)
 
NB est. 0K energy (E-0.5TS)      =  -11075.20218736     eV
 
 
 *********************************** Forces ***********************************
 *                                                                            *
 *                        Cartesian components (eV/A)                         *
 * -------------------------------------------------------------------------- *
 *                   x                    y                    z              *
 *                                                                            *
 * C         1      0.00000              0.00000              0.03078         *
 * O         1      0.00000              0.00000              0.03639         *
 * Pd        1      0.00000(cons'd)      0.00000(cons'd)      0.47115(cons'd) *
 * Pd        2      0.00000              0.00000              0.02647         *
 * Pd        3      0.00000(cons'd)      0.00000(cons'd)     -0.56479(cons'd) *
 *                                                                            *
 ******************************************************************************
  
 +------------+-------------+-------------+-----------------+ <-- min BFGS
 |    Step    |   lambda    |   F.delta'  |    enthalpy     | <-- min BFGS
 +------------+-------------+-------------+-----------------+ <-- min BFGS
 |  previous  |    0.000000 |    0.022306 |   -11075.224931 | <-- min BFGS
 | trial step |    1.000000 |    0.021562 |   -11075.224931 | <-- min BFGS
 +------------+-------------+-------------+-----------------+ <-- min BFGS
  
 BFGS: Warning - trial step suggests complex energy landscape
                 in which simple line minimization will fail.
  
               - This is usually an indication that the forces/streses
                 are not accurate enough. Consider making the following changes:
  
                 1) Increase cutoff_energy or basis_precision
                 2) Reduce elec_energy_tol and/or elec_force_tol
                 3) Increase grid_scale
                 4) Increase fine_grid_scale
  
               - Proceeding with a bisection search to find root instead.
  

--------------------------------------------------------------------------------
 BFGS: improving iteration         1 with bisection search (lambda=  0.500000)
--------------------------------------------------------------------------------
 
                           -------------------------------
                                     Cell Contents
                           -------------------------------
 
            xxxxxxxxxxxxxxxxxxxxxxxxxxxxxxxxxxxxxxxxxxxxxxxxxxxxxxxxxxxx
            x  Element    Atom        Fractional coordinates of atoms  x
            x            Number           u          v          w      x
            x----------------------------------------------------------x
            x  C            1        -0.500000   0.000000   0.385867   x
            x  O            1        -0.500000   0.000000   0.493839   x
            x  Pd           1        -0.500000   0.500000  -0.000000   x
            x  Pd           2        -0.500000  -0.500000   0.250523   x
            x  Pd           3         0.000000   0.000000   0.129714   x
            xxxxxxxxxxxxxxxxxxxxxxxxxxxxxxxxxxxxxxxxxxxxxxxxxxxxxxxxxxxx
 
 
------------------------------------------------------------------------ <-- SCF
SCF loop      Energy           Fermi           Energy gain       Timer   <-- SCF
                               energy          per atom          (sec)   <-- SCF
------------------------------------------------------------------------ <-- SCF
Initial  -1.10751725E+004  0.00000000E+000                        72.42  <-- SCF
      1  -1.10752249E+004  3.24368577E+000   1.04785688E-002      73.30  <-- SCF
      2  -1.10752249E+004  3.24368577E+000   1.76677237E-008      74.42  <-- SCF
      3  -1.10752249E+004  3.24356343E+000   6.23231886E-009      75.55  <-- SCF
      4  -1.10752249E+004  3.24380036E+000   2.14727298E-007      76.64  <-- SCF
------------------------------------------------------------------------ <-- SCF
 
Final energy, E             =  -11075.17945628     eV
Final free energy (E-TS)    =  -11075.22493229     eV
(energies not corrected for finite basis set)
 
NB est. 0K energy (E-0.5TS)      =  -11075.20219428     eV
 
 
 *********************************** Forces ***********************************
 *                                                                            *
 *                        Cartesian components (eV/A)                         *
 * -------------------------------------------------------------------------- *
 *                   x                    y                    z              *
 *                                                                            *
 * C         1      0.00000              0.00000              0.03074         *
 * O         1      0.00000              0.00000              0.03692         *
 * Pd        1      0.00000(cons'd)      0.00000(cons'd)      0.46596(cons'd) *
 * Pd        2      0.00000              0.00000              0.03110         *
 * Pd        3      0.00000(cons'd)      0.00000(cons'd)     -0.56472(cons'd) *
 *                                                                            *
 ******************************************************************************
  
 +------------+-------------+-------------+-----------------+ <-- min BFGS
 |    Step    |   lambda    |   F.delta'  |    enthalpy     | <-- min BFGS
 +------------+-------------+-------------+-----------------+ <-- min BFGS
 |  previous  |    0.000000 |    0.022306 |   -11075.224931 | <-- min BFGS
 | trial step |    0.500000 |    0.022715 |   -11075.224932 | <-- min BFGS
 +------------+-------------+-------------+-----------------+ <-- min BFGS
  
 BFGS: looks like bisection search has succeeded in going downhill
 BFGS: finished iteration     1 with enthalpy= -1.10752249E+004 eV
  
 +-----------+-----------------+-----------------+------------+-----+ <-- BFGS
 | Parameter |      value      |    tolerance    |    units   | OK? | <-- BFGS
 +-----------+-----------------+-----------------+------------+-----+ <-- BFGS
 |  dE/ion   |   2.180639E-007 |   1.000000E-005 |         eV | Yes | <-- BFGS
 |  |F|max   |   3.692198E-002 |   3.000000E-002 |       eV/A | No  | <-- BFGS
 |  |dR|max  |   2.532818E-005 |   1.000000E-003 |          A | Yes | <-- BFGS
 +-----------+-----------------+-----------------+------------+-----+ <-- BFGS
  

================================================================================
 Starting BFGS iteration          2 ...
================================================================================
  
 +------------+-------------+-------------+-----------------+ <-- min BFGS
 |    Step    |   lambda    |   F.delta'  |    enthalpy     | <-- min BFGS
 +------------+-------------+-------------+-----------------+ <-- min BFGS
 |  previous  |    0.000000 |    0.022719 |   -11075.224932 | <-- min BFGS
 +------------+-------------+-------------+-----------------+ <-- min BFGS
  

--------------------------------------------------------------------------------
 BFGS: starting iteration         2 with trial guess (lambda=  1.000000)
--------------------------------------------------------------------------------
 
                           -------------------------------
                                     Cell Contents
                           -------------------------------
 
            xxxxxxxxxxxxxxxxxxxxxxxxxxxxxxxxxxxxxxxxxxxxxxxxxxxxxxxxxxxx
            x  Element    Atom        Fractional coordinates of atoms  x
            x            Number           u          v          w      x
            x----------------------------------------------------------x
            x  C            1        -0.500000   0.000000   0.385871   x
            x  O            1        -0.500000   0.000000   0.493844   x
            x  Pd           1        -0.500000   0.500000  -0.000000   x
            x  Pd           2        -0.500000  -0.500000   0.250527   x
            x  Pd           3         0.000000   0.000000   0.129714   x
            xxxxxxxxxxxxxxxxxxxxxxxxxxxxxxxxxxxxxxxxxxxxxxxxxxxxxxxxxxxx
 
 
------------------------------------------------------------------------ <-- SCF
SCF loop      Energy           Fermi           Energy gain       Timer   <-- SCF
                               energy          per atom          (sec)   <-- SCF
------------------------------------------------------------------------ <-- SCF
Initial  -1.10751849E+004  0.00000000E+000                        78.11  <-- SCF
      1  -1.10752249E+004  3.24360113E+000   8.01432324E-003      79.14  <-- SCF
      2  -1.10752249E+004  3.24360113E+000   2.78226974E-008      80.30  <-- SCF
      3  -1.10752249E+004  3.24357399E+000   6.02449240E-008      81.45  <-- SCF
      4  -1.10752249E+004  3.24370697E+000   9.07350885E-007      82.66  <-- SCF
------------------------------------------------------------------------ <-- SCF
 
Final energy, E             =  -11075.17940167     eV
Final free energy (E-TS)    =  -11075.22493542     eV
(energies not corrected for finite basis set)
 
NB est. 0K energy (E-0.5TS)      =  -11075.20216855     eV
 
 
 *********************************** Forces ***********************************
 *                                                                            *
 *                        Cartesian components (eV/A)                         *
 * -------------------------------------------------------------------------- *
 *                   x                    y                    z              *
 *                                                                            *
 * C         1      0.00000              0.00000              0.03160         *
 * O         1      0.00000              0.00000              0.03441         *
 * Pd        1      0.00000(cons'd)      0.00000(cons'd)      0.47931(cons'd) *
 * Pd        2      0.00000              0.00000              0.01818         *
 * Pd        3      0.00000(cons'd)      0.00000(cons'd)     -0.56350(cons'd) *
 *                                                                            *
 ******************************************************************************
  
 +------------+-------------+-------------+-----------------+ <-- min BFGS
 |    Step    |   lambda    |   F.delta'  |    enthalpy     | <-- min BFGS
 +------------+-------------+-------------+-----------------+ <-- min BFGS
 |  previous  |    0.000000 |    0.022719 |   -11075.224932 | <-- min BFGS
 | trial step |    1.000000 |    0.019473 |   -11075.224935 | <-- min BFGS
 +------------+-------------+-------------+-----------------+ <-- min BFGS
  

--------------------------------------------------------------------------------
 BFGS: improving iteration         2 with line minimization (lambda=  6.998720)
--------------------------------------------------------------------------------
 
                           -------------------------------
                                     Cell Contents
                           -------------------------------
 
            xxxxxxxxxxxxxxxxxxxxxxxxxxxxxxxxxxxxxxxxxxxxxxxxxxxxxxxxxxxx
            x  Element    Atom        Fractional coordinates of atoms  x
            x            Number           u          v          w      x
            x----------------------------------------------------------x
            x  C            1        -0.500000   0.000000   0.385895   x
            x  O            1        -0.500000   0.000000   0.493873   x
            x  Pd           1        -0.500000   0.500000  -0.000000   x
            x  Pd           2        -0.500000  -0.500000   0.250552   x
            x  Pd           3         0.000000   0.000000   0.129714   x
            xxxxxxxxxxxxxxxxxxxxxxxxxxxxxxxxxxxxxxxxxxxxxxxxxxxxxxxxxxxx
 
 
------------------------------------------------------------------------ <-- SCF
SCF loop      Energy           Fermi           Energy gain       Timer   <-- SCF
                               energy          per atom          (sec)   <-- SCF
------------------------------------------------------------------------ <-- SCF
Initial  -1.10751531E+004  0.00000000E+000                        84.25  <-- SCF
      1  -1.10752249E+004  3.24319925E+000   1.43576269E-002      85.56  <-- SCF
      2  -1.10752249E+004  3.24319923E+000   6.19605596E-007      87.36  <-- SCF
      3  -1.10752249E+004  3.24348276E+000   1.10783752E-007      88.59  <-- SCF
      4  -1.10752249E+004  3.24330653E+000   8.59796430E-007      89.80  <-- SCF
------------------------------------------------------------------------ <-- SCF
 
Final energy, E             =  -11075.17944212     eV
Final free energy (E-TS)    =  -11075.22493036     eV
(energies not corrected for finite basis set)
 
NB est. 0K energy (E-0.5TS)      =  -11075.20218624     eV
 
 
 *********************************** Forces ***********************************
 *                                                                            *
 *                        Cartesian components (eV/A)                         *
 * -------------------------------------------------------------------------- *
 *                   x                    y                    z              *
 *                                                                            *
 * C         1      0.00000              0.00000              0.03976         *
 * O         1      0.00000              0.00000              0.03667         *
 * Pd        1      0.00000(cons'd)      0.00000(cons'd)      0.46810(cons'd) *
 * Pd        2      0.00000              0.00000              0.01610         *
 * Pd        3      0.00000(cons'd)      0.00000(cons'd)     -0.56064(cons'd) *
 *                                                                            *
 ******************************************************************************
  
 +------------+-------------+-------------+-----------------+ <-- min BFGS
 |    Step    |   lambda    |   F.delta'  |    enthalpy     | <-- min BFGS
 +------------+-------------+-------------+-----------------+ <-- min BFGS
 |  previous  |    0.000000 |    0.022719 |   -11075.224932 | <-- min BFGS
 | trial step |    1.000000 |    0.019473 |   -11075.224935 | <-- min BFGS
 |  line step |    6.998720 |    0.021344 |   -11075.224930 | <-- min BFGS
 +------------+-------------+-------------+-----------------+ <-- min BFGS
  

--------------------------------------------------------------------------------
 BFGS: improving iteration         2 with quad minimization (lambda=  1.000000)
--------------------------------------------------------------------------------
 
                           -------------------------------
                                     Cell Contents
                           -------------------------------
 
            xxxxxxxxxxxxxxxxxxxxxxxxxxxxxxxxxxxxxxxxxxxxxxxxxxxxxxxxxxxx
            x  Element    Atom        Fractional coordinates of atoms  x
            x            Number           u          v          w      x
            x----------------------------------------------------------x
            x  C            1        -0.500000   0.000000   0.385871   x
            x  O            1        -0.500000   0.000000   0.493844   x
            x  Pd           1        -0.500000   0.500000  -0.000000   x
            x  Pd           2        -0.500000  -0.500000   0.250527   x
            x  Pd           3         0.000000   0.000000   0.129714   x
            xxxxxxxxxxxxxxxxxxxxxxxxxxxxxxxxxxxxxxxxxxxxxxxxxxxxxxxxxxxx
 
 
------------------------------------------------------------------------ <-- SCF
SCF loop      Energy           Fermi           Energy gain       Timer   <-- SCF
                               energy          per atom          (sec)   <-- SCF
------------------------------------------------------------------------ <-- SCF
Initial  -1.10751691E+004  0.00000000E+000                        91.30  <-- SCF
      1  -1.10752249E+004  3.24377912E+000   1.11708009E-002      92.50  <-- SCF
      2  -1.10752249E+004  3.24377910E+000   5.80028855E-007      93.78  <-- SCF
      3  -1.10752249E+004  3.24354295E+000   1.45252689E-007      94.98  <-- SCF
      4  -1.10752249E+004  3.24386610E+000   1.58741362E-006      96.17  <-- SCF
      5  -1.10752249E+004  3.24370993E+000  -1.91201052E-006      97.34  <-- SCF
      6  -1.10752249E+004  3.24354568E+000   2.84156741E-007      98.48  <-- SCF
      7  -1.10752249E+004  3.24356378E+000   1.92698869E-009      99.62  <-- SCF
------------------------------------------------------------------------ <-- SCF
 
Final energy, E             =  -11075.17943990     eV
Final free energy (E-TS)    =  -11075.22493075     eV
(energies not corrected for finite basis set)
 
NB est. 0K energy (E-0.5TS)      =  -11075.20218532     eV
 
 
 *********************************** Forces ***********************************
 *                                                                            *
 *                        Cartesian components (eV/A)                         *
 * -------------------------------------------------------------------------- *
 *                   x                    y                    z              *
 *                                                                            *
 * C         1      0.00000              0.00000              0.03118         *
 * O         1      0.00000              0.00000              0.03577         *
 * Pd        1      0.00000(cons'd)      0.00000(cons'd)      0.47081(cons'd) *
 * Pd        2      0.00000              0.00000              0.02692         *
 * Pd        3      0.00000(cons'd)      0.00000(cons'd)     -0.56468(cons'd) *
 *                                                                            *
 ******************************************************************************
  
 +------------+-------------+-------------+-----------------+ <-- min BFGS
 |    Step    |   lambda    |   F.delta'  |    enthalpy     | <-- min BFGS
 +------------+-------------+-------------+-----------------+ <-- min BFGS
 |  previous  |    0.000000 |    0.022719 |   -11075.224932 | <-- min BFGS
 | trial step |    1.000000 |    0.019473 |   -11075.224935 | <-- min BFGS
 |  line step |    6.998720 |    0.021344 |   -11075.224930 | <-- min BFGS
 |  quad step |    1.000000 |    0.021617 |   -11075.224931 | <-- min BFGS
 +------------+-------------+-------------+-----------------+ <-- min BFGS
  
 BFGS: reverting to earlier configuration
 
                           -------------------------------
                                     Cell Contents
                           -------------------------------
 
            xxxxxxxxxxxxxxxxxxxxxxxxxxxxxxxxxxxxxxxxxxxxxxxxxxxxxxxxxxxx
            x  Element    Atom        Fractional coordinates of atoms  x
            x            Number           u          v          w      x
            x----------------------------------------------------------x
            x  C            1        -0.500000   0.000000   0.385871   x
            x  O            1        -0.500000   0.000000   0.493844   x
            x  Pd           1        -0.500000   0.500000  -0.000000   x
            x  Pd           2        -0.500000  -0.500000   0.250527   x
            x  Pd           3         0.000000   0.000000   0.129714   x
            xxxxxxxxxxxxxxxxxxxxxxxxxxxxxxxxxxxxxxxxxxxxxxxxxxxxxxxxxxxx
 
 
 BFGS: finished iteration     2 with enthalpy= -1.10752249E+004 eV
  
 +-----------+-----------------+-----------------+------------+-----+ <-- BFGS
 | Parameter |      value      |    tolerance    |    units   | OK? | <-- BFGS
 +-----------+-----------------+-----------------+------------+-----+ <-- BFGS
 |  dE/ion   |   6.275482E-007 |   1.000000E-005 |         eV | Yes | <-- BFGS
 |  |F|max   |   3.440930E-002 |   3.000000E-002 |       eV/A | No  | <-- BFGS
 |  |dR|max  |   5.197858E-005 |   1.000000E-003 |          A | Yes | <-- BFGS
 +-----------+-----------------+-----------------+------------+-----+ <-- BFGS
  

================================================================================
 Starting BFGS iteration          3 ...
================================================================================
  
 +------------+-------------+-------------+-----------------+ <-- min BFGS
 |    Step    |   lambda    |   F.delta'  |    enthalpy     | <-- min BFGS
 +------------+-------------+-------------+-----------------+ <-- min BFGS
 |  previous  |    0.000000 |    0.019883 |   -11075.224935 | <-- min BFGS
 +------------+-------------+-------------+-----------------+ <-- min BFGS
  

--------------------------------------------------------------------------------
 BFGS: starting iteration         3 with trial guess (lambda=  1.000000)
--------------------------------------------------------------------------------
 
                           -------------------------------
                                     Cell Contents
                           -------------------------------
 
            xxxxxxxxxxxxxxxxxxxxxxxxxxxxxxxxxxxxxxxxxxxxxxxxxxxxxxxxxxxx
            x  Element    Atom        Fractional coordinates of atoms  x
            x            Number           u          v          w      x
            x----------------------------------------------------------x
            x  C            1        -0.500000   0.000000   0.385906   x
            x  O            1        -0.500000   0.000000   0.493883   x
            x  Pd           1        -0.500000   0.500000  -0.000000   x
            x  Pd           2        -0.500000  -0.500000   0.250550   x
            x  Pd           3         0.000000   0.000000   0.129714   x
            xxxxxxxxxxxxxxxxxxxxxxxxxxxxxxxxxxxxxxxxxxxxxxxxxxxxxxxxxxxx
 
 
------------------------------------------------------------------------ <-- SCF
SCF loop      Energy           Fermi           Energy gain       Timer   <-- SCF
                               energy          per atom          (sec)   <-- SCF
------------------------------------------------------------------------ <-- SCF
Initial  -1.10751513E+004  0.00000000E+000                       101.27  <-- SCF
      1  -1.10752249E+004  3.24322678E+000   1.47227895E-002     102.53  <-- SCF
      2  -1.10752249E+004  3.24322676E+000   6.55049628E-007     103.88  <-- SCF
      3  -1.10752249E+004  3.24355552E+000   7.62758365E-008     105.03  <-- SCF
      4  -1.10752249E+004  3.24342345E+000   7.01784595E-007     106.20  <-- SCF
------------------------------------------------------------------------ <-- SCF
 
Final energy, E             =  -11075.17943520     eV
Final free energy (E-TS)    =  -11075.22492931     eV
(energies not corrected for finite basis set)
 
NB est. 0K energy (E-0.5TS)      =  -11075.20218225     eV
 
 
 *********************************** Forces ***********************************
 *                                                                            *
 *                        Cartesian components (eV/A)                         *
 * -------------------------------------------------------------------------- *
 *                   x                    y                    z              *
 *                                                                            *
 * C         1      0.00000              0.00000              0.03752         *
 * O         1      0.00000              0.00000              0.03653         *
 * Pd        1      0.00000(cons'd)      0.00000(cons'd)      0.46924(cons'd) *
 * Pd        2      0.00000              0.00000              0.01687         *
 * Pd        3      0.00000(cons'd)      0.00000(cons'd)     -0.56016(cons'd) *
 *                                                                            *
 ******************************************************************************
  
 +------------+-------------+-------------+-----------------+ <-- min BFGS
 |    Step    |   lambda    |   F.delta'  |    enthalpy     | <-- min BFGS
 +------------+-------------+-------------+-----------------+ <-- min BFGS
 |  previous  |    0.000000 |    0.019883 |   -11075.224935 | <-- min BFGS
 | trial step |    1.000000 |    0.021688 |   -11075.224929 | <-- min BFGS
 +------------+-------------+-------------+-----------------+ <-- min BFGS
  
 BFGS: Warning - trial step suggests complex energy landscape
                 in which simple line minimization will fail.
  
               - This is usually an indication that the forces/streses
                 are not accurate enough. Consider making the following changes:
  
                 1) Increase cutoff_energy or basis_precision
                 2) Reduce elec_energy_tol and/or elec_force_tol
                 3) Increase grid_scale
                 4) Increase fine_grid_scale
  
               - Proceeding with a bisection search to find root instead.
  

--------------------------------------------------------------------------------
 BFGS: improving iteration         3 with bisection search (lambda=  0.500000)
--------------------------------------------------------------------------------
 
                           -------------------------------
                                     Cell Contents
                           -------------------------------
 
            xxxxxxxxxxxxxxxxxxxxxxxxxxxxxxxxxxxxxxxxxxxxxxxxxxxxxxxxxxxx
            x  Element    Atom        Fractional coordinates of atoms  x
            x            Number           u          v          w      x
            x----------------------------------------------------------x
            x  C            1        -0.500000   0.000000   0.385888   x
            x  O            1        -0.500000   0.000000   0.493864   x
            x  Pd           1        -0.500000   0.500000  -0.000000   x
            x  Pd           2        -0.500000  -0.500000   0.250539   x
            x  Pd           3         0.000000   0.000000   0.129714   x
            xxxxxxxxxxxxxxxxxxxxxxxxxxxxxxxxxxxxxxxxxxxxxxxxxxxxxxxxxxxx
 
 
------------------------------------------------------------------------ <-- SCF
SCF loop      Energy           Fermi           Energy gain       Timer   <-- SCF
                               energy          per atom          (sec)   <-- SCF
------------------------------------------------------------------------ <-- SCF
Initial  -1.10751565E+004  0.00000000E+000                       107.72  <-- SCF
      1  -1.10752249E+004  3.24363524E+000   1.36769802E-002     108.91  <-- SCF
      2  -1.10752249E+004  3.24363523E+000   9.86612641E-008     110.02  <-- SCF
      3  -1.10752249E+004  3.24353768E+000   1.95013483E-007     111.14  <-- SCF
      4  -1.10752249E+004  3.24374962E+000   2.49504541E-006     112.36  <-- SCF
      5  -1.10752249E+004  3.24363558E+000  -3.01717458E-006     113.59  <-- SCF
      6  -1.10752249E+004  3.24351630E+000   4.57075592E-007     114.84  <-- SCF
      7  -1.10752249E+004  3.24353875E+000   7.96688710E-009     115.95  <-- SCF
------------------------------------------------------------------------ <-- SCF
 
Final energy, E             =  -11075.17942532     eV
Final free energy (E-TS)    =  -11075.22492867     eV
(energies not corrected for finite basis set)
 
NB est. 0K energy (E-0.5TS)      =  -11075.20217700     eV
 
 
 *********************************** Forces ***********************************
 *                                                                            *
 *                        Cartesian components (eV/A)                         *
 * -------------------------------------------------------------------------- *
 *                   x                    y                    z              *
 *                                                                            *
 * C         1      0.00000              0.00000              0.03308         *
 * O         1      0.00000              0.00000              0.03396         *
 * Pd        1      0.00000(cons'd)      0.00000(cons'd)      0.47173(cons'd) *
 * Pd        2      0.00000              0.00000              0.02506         *
 * Pd        3      0.00000(cons'd)      0.00000(cons'd)     -0.56384(cons'd) *
 *                                                                            *
 ******************************************************************************
  
 +------------+-------------+-------------+-----------------+ <-- min BFGS
 |    Step    |   lambda    |   F.delta'  |    enthalpy     | <-- min BFGS
 +------------+-------------+-------------+-----------------+ <-- min BFGS
 |  previous  |    0.000000 |    0.019883 |   -11075.224935 | <-- min BFGS
 | trial step |    0.500000 |    0.021220 |   -11075.224929 | <-- min BFGS
 +------------+-------------+-------------+-----------------+ <-- min BFGS
  

--------------------------------------------------------------------------------
 BFGS: improving iteration         3 with bisection search (lambda=  0.250000)
--------------------------------------------------------------------------------
 
                           -------------------------------
                                     Cell Contents
                           -------------------------------
 
            xxxxxxxxxxxxxxxxxxxxxxxxxxxxxxxxxxxxxxxxxxxxxxxxxxxxxxxxxxxx
            x  Element    Atom        Fractional coordinates of atoms  x
            x            Number           u          v          w      x
            x----------------------------------------------------------x
            x  C            1        -0.500000   0.000000   0.385879   x
            x  O            1        -0.500000   0.000000   0.493854   x
            x  Pd           1        -0.500000   0.500000  -0.000000   x
            x  Pd           2        -0.500000  -0.500000   0.250533   x
            x  Pd           3         0.000000   0.000000   0.129714   x
            xxxxxxxxxxxxxxxxxxxxxxxxxxxxxxxxxxxxxxxxxxxxxxxxxxxxxxxxxxxx
 
 
------------------------------------------------------------------------ <-- SCF
SCF loop      Energy           Fermi           Energy gain       Timer   <-- SCF
                               energy          per atom          (sec)   <-- SCF
------------------------------------------------------------------------ <-- SCF
Initial  -1.10751787E+004  0.00000000E+000                       117.47  <-- SCF
      1  -1.10752249E+004  3.24365981E+000   9.23904670E-003     118.56  <-- SCF
      2  -1.10752249E+004  3.24365981E+000   3.19062181E-008     119.69  <-- SCF
      3  -1.10752249E+004  3.24358128E+000   4.65799787E-009     120.92  <-- SCF
      4  -1.10752249E+004  3.24364918E+000   4.19269305E-008     122.25  <-- SCF
------------------------------------------------------------------------ <-- SCF
 
Final energy, E             =  -11075.17944116     eV
Final free energy (E-TS)    =  -11075.22492999     eV
(energies not corrected for finite basis set)
 
NB est. 0K energy (E-0.5TS)      =  -11075.20218557     eV
 
 
 *********************************** Forces ***********************************
 *                                                                            *
 *                        Cartesian components (eV/A)                         *
 * -------------------------------------------------------------------------- *
 *                   x                    y                    z              *
 *                                                                            *
 * C         1      0.00000              0.00000              0.03146         *
 * O         1      0.00000              0.00000              0.03433         *
 * Pd        1      0.00000(cons'd)      0.00000(cons'd)      0.46787(cons'd) *
 * Pd        2      0.00000              0.00000              0.03178         *
 * Pd        3      0.00000(cons'd)      0.00000(cons'd)     -0.56544(cons'd) *
 *                                                                            *
 ******************************************************************************
  
 +------------+-------------+-------------+-----------------+ <-- min BFGS
 |    Step    |   lambda    |   F.delta'  |    enthalpy     | <-- min BFGS
 +------------+-------------+-------------+-----------------+ <-- min BFGS
 |  previous  |    0.000000 |    0.019883 |   -11075.224935 | <-- min BFGS
 | trial step |    0.250000 |    0.021995 |   -11075.224930 | <-- min BFGS
 +------------+-------------+-------------+-----------------+ <-- min BFGS
  

--------------------------------------------------------------------------------
 BFGS: improving iteration         3 with bisection search (lambda=  0.125000)
--------------------------------------------------------------------------------
 
                           -------------------------------
                                     Cell Contents
                           -------------------------------
 
            xxxxxxxxxxxxxxxxxxxxxxxxxxxxxxxxxxxxxxxxxxxxxxxxxxxxxxxxxxxx
            x  Element    Atom        Fractional coordinates of atoms  x
            x            Number           u          v          w      x
            x----------------------------------------------------------x
            x  C            1        -0.500000   0.000000   0.385875   x
            x  O            1        -0.500000   0.000000   0.493849   x
            x  Pd           1        -0.500000   0.500000  -0.000000   x
            x  Pd           2        -0.500000  -0.500000   0.250530   x
            x  Pd           3         0.000000   0.000000   0.129714   x
            xxxxxxxxxxxxxxxxxxxxxxxxxxxxxxxxxxxxxxxxxxxxxxxxxxxxxxxxxxxx
 
 
------------------------------------------------------------------------ <-- SCF
SCF loop      Energy           Fermi           Energy gain       Timer   <-- SCF
                               energy          per atom          (sec)   <-- SCF
------------------------------------------------------------------------ <-- SCF
Initial  -1.10751912E+004  0.00000000E+000                       123.97  <-- SCF
      1  -1.10752249E+004  3.24367469E+000   6.74828155E-003     124.92  <-- SCF
      2  -1.10752249E+004  3.24367468E+000   3.06570320E-008     126.06  <-- SCF
      3  -1.10752249E+004  3.24359417E+000   4.04110781E-008     127.19  <-- SCF
      4  -1.10752249E+004  3.24367943E+000   1.21841524E-006     128.31  <-- SCF
      5  -1.10752249E+004  3.24364555E+000  -1.48495623E-006     129.78  <-- SCF
      6  -1.10752249E+004  3.24355976E+000   2.32672825E-007     130.86  <-- SCF
      7  -1.10752249E+004  3.24358648E+000   1.56349347E-009     131.62  <-- SCF
------------------------------------------------------------------------ <-- SCF
 
Final energy, E             =  -11075.17943688     eV
Final free energy (E-TS)    =  -11075.22493032     eV
(energies not corrected for finite basis set)
 
NB est. 0K energy (E-0.5TS)      =  -11075.20218360     eV
 
 
 *********************************** Forces ***********************************
 *                                                                            *
 *                        Cartesian components (eV/A)                         *
 * -------------------------------------------------------------------------- *
 *                   x                    y                    z              *
 *                                                                            *
 * C         1      0.00000              0.00000              0.03126         *
 * O         1      0.00000              0.00000              0.03498         *
 * Pd        1      0.00000(cons'd)      0.00000(cons'd)      0.47046(cons'd) *
 * Pd        2      0.00000              0.00000              0.02795         *
 * Pd        3      0.00000(cons'd)      0.00000(cons'd)     -0.56466(cons'd) *
 *                                                                            *
 ******************************************************************************
  
 +------------+-------------+-------------+-----------------+ <-- min BFGS
 |    Step    |   lambda    |   F.delta'  |    enthalpy     | <-- min BFGS
 +------------+-------------+-------------+-----------------+ <-- min BFGS
 |  previous  |    0.000000 |    0.019883 |   -11075.224935 | <-- min BFGS
 | trial step |    0.125000 |    0.021514 |   -11075.224930 | <-- min BFGS
 +------------+-------------+-------------+-----------------+ <-- min BFGS
  

--------------------------------------------------------------------------------
 BFGS: improving iteration         3 with bisection search (lambda=  0.062500)
--------------------------------------------------------------------------------
 
                           -------------------------------
                                     Cell Contents
                           -------------------------------
 
            xxxxxxxxxxxxxxxxxxxxxxxxxxxxxxxxxxxxxxxxxxxxxxxxxxxxxxxxxxxx
            x  Element    Atom        Fractional coordinates of atoms  x
            x            Number           u          v          w      x
            x----------------------------------------------------------x
            x  C            1        -0.500000   0.000000   0.385873   x
            x  O            1        -0.500000   0.000000   0.493847   x
            x  Pd           1        -0.500000   0.500000  -0.000000   x
            x  Pd           2        -0.500000  -0.500000   0.250529   x
            x  Pd           3         0.000000   0.000000   0.129714   x
            xxxxxxxxxxxxxxxxxxxxxxxxxxxxxxxxxxxxxxxxxxxxxxxxxxxxxxxxxxxx
 
 
------------------------------------------------------------------------ <-- SCF
SCF loop      Energy           Fermi           Energy gain       Timer   <-- SCF
                               energy          per atom          (sec)   <-- SCF
------------------------------------------------------------------------ <-- SCF
Initial  -1.10751781E+004  0.00000000E+000                       132.95  <-- SCF
      1  -1.10752249E+004  3.24362581E+000   9.36413295E-003     133.80  <-- SCF
      2  -1.10752249E+004  3.24362580E+000   1.41122765E-008     134.91  <-- SCF
      3  -1.10752249E+004  3.24360777E+000   3.86511426E-009     136.05  <-- SCF
      4  -1.10752249E+004  3.24363276E+000   5.60076525E-008     137.19  <-- SCF
------------------------------------------------------------------------ <-- SCF
 
Final energy, E             =  -11075.17944757     eV
Final free energy (E-TS)    =  -11075.22493082     eV
(energies not corrected for finite basis set)
 
NB est. 0K energy (E-0.5TS)      =  -11075.20218920     eV
 
 
 *********************************** Forces ***********************************
 *                                                                            *
 *                        Cartesian components (eV/A)                         *
 * -------------------------------------------------------------------------- *
 *                   x                    y                    z              *
 *                                                                            *
 * C         1      0.00000              0.00000              0.03112         *
 * O         1      0.00000              0.00000              0.03570         *
 * Pd        1      0.00000(cons'd)      0.00000(cons'd)      0.46776(cons'd) *
 * Pd        2      0.00000              0.00000              0.03065         *
 * Pd        3      0.00000(cons'd)      0.00000(cons'd)     -0.56522(cons'd) *
 *                                                                            *
 ******************************************************************************
  
 +------------+-------------+-------------+-----------------+ <-- min BFGS
 |    Step    |   lambda    |   F.delta'  |    enthalpy     | <-- min BFGS
 +------------+-------------+-------------+-----------------+ <-- min BFGS
 |  previous  |    0.000000 |    0.019883 |   -11075.224935 | <-- min BFGS
 | trial step |    0.062500 |    0.022100 |   -11075.224931 | <-- min BFGS
 +------------+-------------+-------------+-----------------+ <-- min BFGS
  

--------------------------------------------------------------------------------
 BFGS: improving iteration         3 with bisection search (lambda=  0.031250)
--------------------------------------------------------------------------------
 
                           -------------------------------
                                     Cell Contents
                           -------------------------------
 
            xxxxxxxxxxxxxxxxxxxxxxxxxxxxxxxxxxxxxxxxxxxxxxxxxxxxxxxxxxxx
            x  Element    Atom        Fractional coordinates of atoms  x
            x            Number           u          v          w      x
            x----------------------------------------------------------x
            x  C            1        -0.500000   0.000000   0.385872   x
            x  O            1        -0.500000   0.000000   0.493845   x
            x  Pd           1        -0.500000   0.500000  -0.000000   x
            x  Pd           2        -0.500000  -0.500000   0.250528   x
            x  Pd           3         0.000000   0.000000   0.129714   x
            xxxxxxxxxxxxxxxxxxxxxxxxxxxxxxxxxxxxxxxxxxxxxxxxxxxxxxxxxxxx
 
 
------------------------------------------------------------------------ <-- SCF
SCF loop      Energy           Fermi           Energy gain       Timer   <-- SCF
                               energy          per atom          (sec)   <-- SCF
------------------------------------------------------------------------ <-- SCF
Initial  -1.10751842E+004  0.00000000E+000                       138.73  <-- SCF
      1  -1.10752249E+004  3.24363567E+000   8.14595739E-003     139.55  <-- SCF
      2  -1.10752249E+004  3.24363567E+000   5.71631033E-009     140.72  <-- SCF
      3  -1.10752249E+004  3.24361186E+000   2.64039833E-008     141.86  <-- SCF
      4  -1.10752249E+004  3.24364757E+000   6.69882089E-007     142.97  <-- SCF
------------------------------------------------------------------------ <-- SCF
 
Final energy, E             =  -11075.17940949     eV
Final free energy (E-TS)    =  -11075.22493410     eV
(energies not corrected for finite basis set)
 
NB est. 0K energy (E-0.5TS)      =  -11075.20217180     eV
 
 
 *********************************** Forces ***********************************
 *                                                                            *
 *                        Cartesian components (eV/A)                         *
 * -------------------------------------------------------------------------- *
 *                   x                    y                    z              *
 *                                                                            *
 * C         1      0.00000              0.00000              0.03046         *
 * O         1      0.00000              0.00000              0.03344         *
 * Pd        1      0.00000(cons'd)      0.00000(cons'd)      0.47700(cons'd) *
 * Pd        2      0.00000              0.00000              0.02439         *
 * Pd        3      0.00000(cons'd)      0.00000(cons'd)     -0.56530(cons'd) *
 *                                                                            *
 ******************************************************************************
  
 +------------+-------------+-------------+-----------------+ <-- min BFGS
 |    Step    |   lambda    |   F.delta'  |    enthalpy     | <-- min BFGS
 +------------+-------------+-------------+-----------------+ <-- min BFGS
 |  previous  |    0.000000 |    0.019883 |   -11075.224935 | <-- min BFGS
 | trial step |    0.031250 |    0.020334 |   -11075.224934 | <-- min BFGS
 +------------+-------------+-------------+-----------------+ <-- min BFGS
  
 BFGS: Warning - looks like bisection search has failed?
 BFGS:         - reverting to earlier configuration and reseting inverse Hessian
 BFGS: finished iteration     3 with enthalpy= -1.10752249E+004 eV
  
 +-----------+-----------------+-----------------+------------+-----+ <-- BFGS
 | Parameter |      value      |    tolerance    |    units   | OK? | <-- BFGS
 +-----------+-----------------+-----------------+------------+-----+ <-- BFGS
 |  dE/ion   |   6.275482E-007 |   1.000000E-005 |         eV | Yes | <-- BFGS
 |  |F|max   |   3.440930E-002 |   3.000000E-002 |       eV/A | No  | <-- BFGS
 |  |dR|max  |   5.197858E-005 |   1.000000E-003 |          A | Yes | <-- BFGS
 +-----------+-----------------+-----------------+------------+-----+ <-- BFGS
  

================================================================================
 Starting BFGS iteration          4 ...
================================================================================
  
 +------------+-------------+-------------+-----------------+ <-- min BFGS
 |    Step    |   lambda    |   F.delta'  |    enthalpy     | <-- min BFGS
 +------------+-------------+-------------+-----------------+ <-- min BFGS
 |  previous  |    0.000000 |    0.019901 |   -11075.224935 | <-- min BFGS
 +------------+-------------+-------------+-----------------+ <-- min BFGS
  

--------------------------------------------------------------------------------
 BFGS: starting iteration         4 with trial guess (lambda=  1.000000)
--------------------------------------------------------------------------------
 
                           -------------------------------
                                     Cell Contents
                           -------------------------------
 
            xxxxxxxxxxxxxxxxxxxxxxxxxxxxxxxxxxxxxxxxxxxxxxxxxxxxxxxxxxxx
            x  Element    Atom        Fractional coordinates of atoms  x
            x            Number           u          v          w      x
            x----------------------------------------------------------x
            x  C            1        -0.500000   0.000000   0.385875   x
            x  O            1        -0.500000   0.000000   0.493849   x
            x  Pd           1        -0.500000   0.500000  -0.000000   x
            x  Pd           2        -0.500000  -0.500000   0.250530   x
            x  Pd           3         0.000000   0.000000   0.129714   x
            xxxxxxxxxxxxxxxxxxxxxxxxxxxxxxxxxxxxxxxxxxxxxxxxxxxxxxxxxxxx
 
 
------------------------------------------------------------------------ <-- SCF
SCF loop      Energy           Fermi           Energy gain       Timer   <-- SCF
                               energy          per atom          (sec)   <-- SCF
------------------------------------------------------------------------ <-- SCF
Initial  -1.10751694E+004  0.00000000E+000                       144.58  <-- SCF
      1  -1.10752249E+004  3.24360185E+000   1.11077970E-002     145.44  <-- SCF
      2  -1.10752249E+004  3.24360185E+000   2.22004318E-008     146.53  <-- SCF
      3  -1.10752249E+004  3.24361723E+000   1.17367501E-007     147.73  <-- SCF
      4  -1.10752249E+004  3.24360826E+000   1.24773214E-008     148.86  <-- SCF
------------------------------------------------------------------------ <-- SCF
 
Final energy, E             =  -11075.17944096     eV
Final free energy (E-TS)    =  -11075.22493044     eV
(energies not corrected for finite basis set)
 
NB est. 0K energy (E-0.5TS)      =  -11075.20218570     eV
 
 
 *********************************** Forces ***********************************
 *                                                                            *
 *                        Cartesian components (eV/A)                         *
 * -------------------------------------------------------------------------- *
 *                   x                    y                    z              *
 *                                                                            *
 * C         1      0.00000              0.00000              0.03199         *
 * O         1      0.00000              0.00000              0.03601         *
 * Pd        1      0.00000(cons'd)      0.00000(cons'd)      0.47018(cons'd) *
 * Pd        2      0.00000              0.00000              0.02615         *
[...]
            x  Pd           1        -0.500000   0.500000  -0.000000   x
            x  Pd           2        -0.500000  -0.500000   0.250890   x
            x  Pd           3         0.000000   0.000000   0.129714   x
            xxxxxxxxxxxxxxxxxxxxxxxxxxxxxxxxxxxxxxxxxxxxxxxxxxxxxxxxxxxx
 
 
------------------------------------------------------------------------ <-- SCF
SCF loop      Energy           Fermi           Energy gain       Timer   <-- SCF
                               energy          per atom          (sec)   <-- SCF
------------------------------------------------------------------------ <-- SCF
Initial  -1.10751547E+004  0.00000000E+000                       380.86  <-- SCF
      1  -1.10752238E+004  3.24630993E+000   1.38162482E-002     381.67  <-- SCF
      2  -1.10752238E+004  3.24630970E+000   8.72041949E-006     382.91  <-- SCF
      3  -1.10752238E+004  3.24766767E+000  -1.00320844E-006     383.73  <-- SCF
      4  -1.10752238E+004  3.24662875E+000   1.37055145E-006     384.52  <-- SCF
      5  -1.10752238E+004  3.24715170E+000  -1.52946537E-006     385.33  <-- SCF
      6  -1.10752238E+004  3.24757036E+000   1.03844551E-007     386.20  <-- SCF
      7  -1.10752238E+004  3.24753769E+000   2.18768437E-008     387.00  <-- SCF
------------------------------------------------------------------------ <-- SCF
 
Final energy, E             =  -11075.17793934     eV
Final free energy (E-TS)    =  -11075.22381640     eV
(energies not corrected for finite basis set)
 
NB est. 0K energy (E-0.5TS)      =  -11075.20087787     eV
 
 
 *********************************** Forces ***********************************
 *                                                                            *
 *                        Cartesian components (eV/A)                         *
 * -------------------------------------------------------------------------- *
 *                   x                    y                    z              *
 *                                                                            *
 * C         1      0.00000              0.00000              0.02432         *
 * O         1      0.00000              0.00000             -0.01238         *
 * Pd        1      0.00000(cons'd)      0.00000(cons'd)      0.52646(cons'd) *
 * Pd        2      0.00000              0.00000             -0.01683         *
 * Pd        3      0.00000(cons'd)      0.00000(cons'd)     -0.52157(cons'd) *
 *                                                                            *
 ******************************************************************************
  
 +------------+-------------+-------------+-----------------+ <-- min BFGS
 |    Step    |   lambda    |   F.delta'  |    enthalpy     | <-- min BFGS
 +------------+-------------+-------------+-----------------+ <-- min BFGS
 |  previous  |    0.000000 |    0.003573 |   -11075.224026 | <-- min BFGS
 | trial step |    1.000000 |   -0.000779 |   -11075.223816 | <-- min BFGS
 +------------+-------------+-------------+-----------------+ <-- min BFGS
  

--------------------------------------------------------------------------------
 BFGS: improving iteration        17 with line minimization (lambda=  0.820909)
--------------------------------------------------------------------------------
 
                           -------------------------------
                                     Cell Contents
                           -------------------------------
 
            xxxxxxxxxxxxxxxxxxxxxxxxxxxxxxxxxxxxxxxxxxxxxxxxxxxxxxxxxxxx
            x  Element    Atom        Fractional coordinates of atoms  x
            x            Number           u          v          w      x
            x----------------------------------------------------------x
            x  C            1        -0.500000   0.000000   0.387094   x
            x  O            1        -0.500000   0.000000   0.495108   x
            x  Pd           1        -0.500000   0.500000  -0.000000   x
            x  Pd           2        -0.500000  -0.500000   0.250874   x
            x  Pd           3         0.000000   0.000000   0.129714   x
            xxxxxxxxxxxxxxxxxxxxxxxxxxxxxxxxxxxxxxxxxxxxxxxxxxxxxxxxxxxx
 
 
------------------------------------------------------------------------ <-- SCF
SCF loop      Energy           Fermi           Energy gain       Timer   <-- SCF
                               energy          per atom          (sec)   <-- SCF
------------------------------------------------------------------------ <-- SCF
Initial  -1.10751897E+004  0.00000000E+000                       388.23  <-- SCF
      1  -1.10752239E+004  3.24783118E+000   6.83476190E-003     388.95  <-- SCF
      2  -1.10752239E+004  3.24783118E+000   2.24333781E-007     389.83  <-- SCF
      3  -1.10752239E+004  3.24752484E+000  -9.02674635E-009     390.61  <-- SCF
      4  -1.10752239E+004  3.24779611E+000   2.99479843E-008     391.36  <-- SCF
------------------------------------------------------------------------ <-- SCF
 
Final energy, E             =  -11075.17799200     eV
Final free energy (E-TS)    =  -11075.22385767     eV
(energies not corrected for finite basis set)
 
NB est. 0K energy (E-0.5TS)      =  -11075.20092483     eV
 
 
 *********************************** Forces ***********************************
 *                                                                            *
 *                        Cartesian components (eV/A)                         *
 * -------------------------------------------------------------------------- *
 *                   x                    y                    z              *
 *                                                                            *
 * C         1      0.00000              0.00000              0.02202         *
 * O         1      0.00000              0.00000             -0.01520         *
 * Pd        1      0.00000(cons'd)      0.00000(cons'd)      0.52388(cons'd) *
 * Pd        2      0.00000              0.00000             -0.00626         *
 * Pd        3      0.00000(cons'd)      0.00000(cons'd)     -0.52444(cons'd) *
 *                                                                            *
 ******************************************************************************
  
 +------------+-------------+-------------+-----------------+ <-- min BFGS
 |    Step    |   lambda    |   F.delta'  |    enthalpy     | <-- min BFGS
 +------------+-------------+-------------+-----------------+ <-- min BFGS
 |  previous  |    0.000000 |    0.003573 |   -11075.224026 | <-- min BFGS
 | trial step |    1.000000 |   -0.000779 |   -11075.223816 | <-- min BFGS
 |  line step |    0.820909 |    0.000251 |   -11075.223858 | <-- min BFGS
 +------------+-------------+-------------+-----------------+ <-- min BFGS
  

--------------------------------------------------------------------------------
 BFGS: improving iteration        17 with quad minimization (lambda=  0.872193)
--------------------------------------------------------------------------------
 
                           -------------------------------
                                     Cell Contents
                           -------------------------------
 
            xxxxxxxxxxxxxxxxxxxxxxxxxxxxxxxxxxxxxxxxxxxxxxxxxxxxxxxxxxxx
            x  Element    Atom        Fractional coordinates of atoms  x
            x            Number           u          v          w      x
            x----------------------------------------------------------x
            x  C            1        -0.500000   0.000000   0.387099   x
            x  O            1        -0.500000   0.000000   0.495113   x
            x  Pd           1        -0.500000   0.500000  -0.000000   x
            x  Pd           2        -0.500000  -0.500000   0.250879   x
            x  Pd           3         0.000000   0.000000   0.129714   x
            xxxxxxxxxxxxxxxxxxxxxxxxxxxxxxxxxxxxxxxxxxxxxxxxxxxxxxxxxxxx
 
 
------------------------------------------------------------------------ <-- SCF
SCF loop      Energy           Fermi           Energy gain       Timer   <-- SCF
                               energy          per atom          (sec)   <-- SCF
------------------------------------------------------------------------ <-- SCF
Initial  -1.10751917E+004  0.00000000E+000                       392.36  <-- SCF
      1  -1.10752238E+004  3.24748886E+000   6.42713208E-003     393.03  <-- SCF
      2  -1.10752238E+004  3.24748885E+000   2.26910730E-008     394.02  <-- SCF
      3  -1.10752238E+004  3.24760313E+000   5.13010855E-008     394.75  <-- SCF
      4  -1.10752239E+004  3.24744867E+000   2.00728741E-006     395.61  <-- SCF
      5  -1.10752238E+004  3.24752582E+000  -2.47675649E-006     396.47  <-- SCF
      6  -1.10752238E+004  3.24765419E+000   4.06485101E-007     397.36  <-- SCF
      7  -1.10752238E+004  3.24761152E+000   3.29249328E-009     398.19  <-- SCF
------------------------------------------------------------------------ <-- SCF
 
Final energy, E             =  -11075.17797879     eV
Final free energy (E-TS)    =  -11075.22384601     eV
(energies not corrected for finite basis set)
 
NB est. 0K energy (E-0.5TS)      =  -11075.20091240     eV
 
 
 *********************************** Forces ***********************************
 *                                                                            *
 *                        Cartesian components (eV/A)                         *
 * -------------------------------------------------------------------------- *
 *                   x                    y                    z              *
 *                                                                            *
 * C         1      0.00000              0.00000              0.02345         *
 * O         1      0.00000              0.00000             -0.01314         *
 * Pd        1      0.00000(cons'd)      0.00000(cons'd)      0.52571(cons'd) *
 * Pd        2      0.00000              0.00000             -0.01278         *
 * Pd        3      0.00000(cons'd)      0.00000(cons'd)     -0.52324(cons'd) *
 *                                                                            *
 ******************************************************************************
  
 +------------+-------------+-------------+-----------------+ <-- min BFGS
 |    Step    |   lambda    |   F.delta'  |    enthalpy     | <-- min BFGS
 +------------+-------------+-------------+-----------------+ <-- min BFGS
 |  previous  |    0.000000 |    0.003573 |   -11075.224026 | <-- min BFGS
 | trial step |    1.000000 |   -0.000779 |   -11075.223816 | <-- min BFGS
 |  line step |    0.820909 |    0.000251 |   -11075.223858 | <-- min BFGS
 |  quad step |    0.872193 |   -0.000305 |   -11075.223846 | <-- min BFGS
 +------------+-------------+-------------+-----------------+ <-- min BFGS
  
 BFGS: reverting to earlier configuration and reseting inverse Hessian
 BFGS: updated estimated <frequency>  =2184.24338 cm-1
 BFGS: finished iteration    17 with enthalpy= -1.10752240E+004 eV
  
 +-----------+-----------------+-----------------+------------+-----+ <-- BFGS
 | Parameter |      value      |    tolerance    |    units   | OK? | <-- BFGS
 +-----------+-----------------+-----------------+------------+-----+ <-- BFGS
 |  dE/ion   |   2.575626E-005 |   1.000000E-005 |         eV | No  | <-- BFGS
 |  |F|max   |   2.083254E-002 |   3.000000E-002 |       eV/A | Yes | <-- BFGS
 |  |dR|max  |   1.132316E-003 |   1.000000E-003 |          A | No  | <-- BFGS
 +-----------+-----------------+-----------------+------------+-----+ <-- BFGS
  

================================================================================
 Starting BFGS iteration         18 ...
================================================================================
  
 +------------+-------------+-------------+-----------------+ <-- min BFGS
 |    Step    |   lambda    |   F.delta'  |    enthalpy     | <-- min BFGS
 +------------+-------------+-------------+-----------------+ <-- min BFGS
 |  previous  |    0.000000 |    0.012886 |   -11075.224026 | <-- min BFGS
 +------------+-------------+-------------+-----------------+ <-- min BFGS
  

--------------------------------------------------------------------------------
 BFGS: starting iteration        18 with trial guess (lambda=  1.000000)
--------------------------------------------------------------------------------
 
                           -------------------------------
                                     Cell Contents
                           -------------------------------
 
            xxxxxxxxxxxxxxxxxxxxxxxxxxxxxxxxxxxxxxxxxxxxxxxxxxxxxxxxxxxx
            x  Element    Atom        Fractional coordinates of atoms  x
            x            Number           u          v          w      x
            x----------------------------------------------------------x
            x  C            1        -0.500000   0.000000   0.387010   x
            x  O            1        -0.500000   0.000000   0.495021   x
            x  Pd           1        -0.500000   0.500000  -0.000000   x
            x  Pd           2        -0.500000  -0.500000   0.250800   x
            x  Pd           3         0.000000   0.000000   0.129714   x
            xxxxxxxxxxxxxxxxxxxxxxxxxxxxxxxxxxxxxxxxxxxxxxxxxxxxxxxxxxxx
 
 
------------------------------------------------------------------------ <-- SCF
SCF loop      Energy           Fermi           Energy gain       Timer   <-- SCF
                               energy          per atom          (sec)   <-- SCF
------------------------------------------------------------------------ <-- SCF
Initial  -1.10752022E+004  0.00000000E+000                       399.39  <-- SCF
      1  -1.10752240E+004  3.24899727E+000   4.35106395E-003     400.41  <-- SCF
      2  -1.10752240E+004  3.24899710E+000   6.30474783E-006     401.52  <-- SCF
      3  -1.10752240E+004  3.24779220E+000  -7.73287352E-007     402.39  <-- SCF
      4  -1.10752240E+004  3.24874187E+000   1.83273268E-006     403.22  <-- SCF
      5  -1.10752240E+004  3.24828836E+000  -2.09672827E-006     404.08  <-- SCF
      6  -1.10752240E+004  3.24786045E+000   2.50037378E-007     404.83  <-- SCF
      7  -1.10752240E+004  3.24787447E+000   1.50561266E-008     405.53  <-- SCF
------------------------------------------------------------------------ <-- SCF
 
Final energy, E             =  -11075.17824700     eV
Final free energy (E-TS)    =  -11075.22402582     eV
(energies not corrected for finite basis set)
 
NB est. 0K energy (E-0.5TS)      =  -11075.20113641     eV
 
 
 *********************************** Forces ***********************************
 *                                                                            *
 *                        Cartesian components (eV/A)                         *
 * -------------------------------------------------------------------------- *
 *                   x                    y                    z              *
 *                                                                            *
 * C         1      0.00000              0.00000              0.01355         *
 * O         1      0.00000              0.00000             -0.01669         *
 * Pd        1      0.00000(cons'd)      0.00000(cons'd)      0.51557(cons'd) *
 * Pd        2      0.00000              0.00000              0.01987         *
 * Pd        3      0.00000(cons'd)      0.00000(cons'd)     -0.53231(cons'd) *
 *                                                                            *
 ******************************************************************************
  
 +------------+-------------+-------------+-----------------+ <-- min BFGS
 |    Step    |   lambda    |   F.delta'  |    enthalpy     | <-- min BFGS
 +------------+-------------+-------------+-----------------+ <-- min BFGS
 |  previous  |    0.000000 |    0.012886 |   -11075.224026 | <-- min BFGS
 | trial step |    1.000000 |    0.011608 |   -11075.224026 | <-- min BFGS
 +------------+-------------+-------------+-----------------+ <-- min BFGS
  
 BFGS: finished iteration    18 with enthalpy= -1.10752240E+004 eV
  
 +-----------+-----------------+-----------------+------------+-----+ <-- BFGS
 | Parameter |      value      |    tolerance    |    units   | OK? | <-- BFGS
 +-----------+-----------------+-----------------+------------+-----+ <-- BFGS
 |  dE/ion   |   8.464412E-009 |   1.000000E-005 |         eV | Yes | <-- BFGS
 |  |F|max   |   1.987081E-002 |   3.000000E-002 |       eV/A | Yes | <-- BFGS
 |  |dR|max  |   1.709929E-005 |   1.000000E-003 |          A | Yes | <-- BFGS
 +-----------+-----------------+-----------------+------------+-----+ <-- BFGS
  
 BFGS: Geometry optimization completed successfully.

================================================================================
 BFGS: Final Configuration:
================================================================================
 
                           -------------------------------
                                     Cell Contents
                           -------------------------------
 
            xxxxxxxxxxxxxxxxxxxxxxxxxxxxxxxxxxxxxxxxxxxxxxxxxxxxxxxxxxxx
            x  Element    Atom        Fractional coordinates of atoms  x
            x            Number           u          v          w      x
            x----------------------------------------------------------x
            x  C            1        -0.500000   0.000000   0.387010   x
            x  O            1        -0.500000   0.000000   0.495021   x
            x  Pd           1        -0.500000   0.500000  -0.000000   x
            x  Pd           2        -0.500000  -0.500000   0.250800   x
            x  Pd           3         0.000000   0.000000   0.129714   x
            xxxxxxxxxxxxxxxxxxxxxxxxxxxxxxxxxxxxxxxxxxxxxxxxxxxxxxxxxxxx
 
 
 BFGS: Final Enthalpy     = -1.10752240E+004 eV
 BFGS: Final <frequency>  =    2184.24338 cm-1
  
  **********************************************************
  *** There were at least     8 warnings during this run ***
  *** => please check the whole of this file carefully!  ***
  **********************************************************
 
 ***************************** Symmetrised Forces *****************************
 *                                                                            *
 *                        Cartesian components (eV/A)                         *
 * -------------------------------------------------------------------------- *
 *                   x                    y                    z              *
 *                                                                            *
 * C         1      0.00000              0.00000              0.01355         *
 * O         1      0.00000              0.00000             -0.01669         *
 * Pd        1      0.00000(cons'd)      0.00000(cons'd)      0.51557(cons'd) *
 * Pd        2      0.00000              0.00000              0.01987         *
 * Pd        3      0.00000(cons'd)      0.00000(cons'd)     -0.53231(cons'd) *
 *                                                                            *
 ******************************************************************************

Writing analysis data to _1x1__CO_on_Pd__1_1_0_.castep_bin

Writing model to _1x1__CO_on_Pd__1_1_0_.check
 
 A BibTeX formatted list of references used in this run has been written to 
 _1x1__CO_on_Pd__1_1_0_.bib
 
Initialisation time =     23.64 s
Calculation time    =    382.97 s
Finalisation time   =      0.14 s
Total time          =    406.75 s
  
Overall parallel efficiency rating: Excellent (96%)                             
  
Data was distributed by:-
k-point (2-way); efficiency rating: Excellent (96%)                             
  
Parallel notes:
1) Calculation only took 406.8 s, so efficiency estimates may be inaccurate.    
