 Job started on host DESKTOP-5CQNRD0
 at Wed Oct  2 12:56:38 2019

 +-------------------------------------------------+
 |                                                 |
 |      CCC   AA    SSS  TTTTT  EEEEE  PPPP        |
 |     C     A  A  S       T    E      P   P       |
 |     C     AAAA   SS     T    EEE    PPPP        |
 |     C     A  A     S    T    E      P           |
 |      CCC  A  A  SSS     T    EEEEE  P           |
 |                                                 |
 +-------------------------------------------------+
 |                                                 |
 | Materials Studio CASTEP version 2017            |
 | Ab Initio Total Energy Program                  |
 |                                                 |
 | Authors:                                        |
 | M. Segall, M. Probert, C. Pickard, P. Hasnip,   |
 | S. Clark, K. Refson, J. R. Yates, M. Payne      |
 |                                                 |
 | Contributors:                                   |
 | P. Lindan, P. Haynes, J. White, V. Milman,      |
 | N. Govind, M. Gibson, P. Tulip, V. Cocula,      |
 | B. Montanari, D. Quigley, M. Glover,            |
 | L. Bernasconi, A. Perlov, M. Plummer,           |
 | E. McNellis, J. Meyer, J. Gale, D. Jochym       |
 | J. Aarons, B. Walker, R. Gillen, D. Jones       |
 | T. Green, I. J. Bush, C. J. Armstrong,          |
 | E. J. Higgins, E. L. Brown, M. S. McFly         |
 |                                                 |
 | Copyright (c) 2000 - 2016                       |
 |                                                 |
 | Please cite                                     |
 |                                                 |
 |     "First principles methods using CASTEP"     |
 |                                                 |
 |         Zeitschrift fuer Kristallographie       |
 |           220(5-6) pp. 567-570 (2005)           |
 |                                                 |
 | S. J. Clark, M. D. Segall, C. J. Pickard,       |
 | P. J. Hasnip, M. J. Probert, K. Refson,         |
 | M. C. Payne                                     |
 |                                                 |
 |       in all publications arising from          |
 |              your use of CASTEP                 |
 |                                                 |
 +-------------------------------------------------+
 
 
 This version was compiled for x86_64-windows-msvc2008 on May 05 2016
 Intel(R) Math Kernel Library Version 11.1.2 
 Fundamental constants values: CODATA 2010
 
License checkout of MS_castep successful
 
 
 Atomic calculation performed for H: 1s1
 
 Converged in 41 iterations to an ae energy of -12.488 eV
 
 Identity difference: 2.63E-05
 
   ============================================================                
   | Pseudopotential Report - Date of generation  2-10-2019   |                
   ------------------------------------------------------------                
   | Element: H Ionic charge:  1.00 Level of theory: PBE      |                
   | Atomic Solver: Koelling-Harmon                           |                
   |                                                          |                
   |               Reference Electronic Structure             |                
   |         Orbital         Occupation         Energy        |                
   |            1s              1.000           -0.239        |                
   |                                                          |                
   |                 Pseudopotential Definition               |                
   |        Beta     l      e      Rc     scheme   norm       |                
   |          1      0   -0.239   0.599     qc      0         |                
   |          2      0    0.250   0.599     qc      0         |                
   |         loc     1    0.000   0.599     pn      0         |                
   |                                                          |                
   | Augmentation charge Rinner = 0.421                       |                
   | No partial core correction                               |                
   ------------------------------------------------------------                
   | "1|0.6|9|10|15|10UU(qc=8)[]"                             |                
   ------------------------------------------------------------                
   |      Author: Chris J. Pickard, Cambridge University      |                
   ============================================================                
 
 Doing a self consistent calculation for the test configuration
 
 Atomic calculation performed for H: 1s1
 
 Converged in 41 iterations to an ae energy of -12.488 eV
 
 ---------------------------------------
 AE eigenvalue nl 10 =       -0.23860176
 ---------------------------------------
 PS eigenvalue nl 10 =       -0.23857601
 ---------------------------------------
 Maximum eigenvalue error:   2.57E-05
 
 Derived cutoff energies: C=   1 M=   6 F=  10 E=  20
 
 
 ***************************************
 
 Atomic calculation performed for C: 1s2 2s2 2p2
 
 Converged in 54 iterations to an ae energy of -1027.632 eV
 
 Identity difference: 2.37E-04
 
   ============================================================                
   | Pseudopotential Report - Date of generation  2-10-2019   |                
   ------------------------------------------------------------                
   | Element: C Ionic charge:  4.00 Level of theory: PBE      |                
   | Atomic Solver: Koelling-Harmon                           |                
   |                                                          |                
   |               Reference Electronic Structure             |                
   |         Orbital         Occupation         Energy        |                
   |            2s              2.000           -0.505        |                
   |            2p              2.000           -0.194        |                
   |                                                          |                
   |                 Pseudopotential Definition               |                
   |        Beta     l      e      Rc     scheme   norm       |                
   |          1      0   -0.505   1.395     qc      0         |                
   |          2      0    0.250   1.395     qc      0         |                
   |          3      1   -0.194   1.395     qc      0         |                
   |          4      1    0.250   1.395     qc      0         |                
   |         loc     2    0.000   1.395     pn      0         |                
   |                                                          |                
   | Augmentation charge Rinner = 0.983                       |                
   | Partial core correction Rc = 0.983                       |                
   ------------------------------------------------------------                
   | "2|1.4|11|12|14.7|20UU:21UU(qc=7)[]"                     |                
   ------------------------------------------------------------                
   |      Author: Chris J. Pickard, Cambridge University      |                
   ============================================================                
 
 Doing a self consistent calculation for the test configuration
 
 Atomic calculation performed for C: 1s2 2s2 2p2
 
 Converged in 54 iterations to an ae energy of -1027.632 eV
 
 ---------------------------------------
 AE eigenvalue nl 10 =      -10.04653081
 AE eigenvalue nl 20 =       -0.50533429
 AE eigenvalue nl 21 =       -0.19423807
 ---------------------------------------
 PS eigenvalue nl 20 =       -0.50531853
 PS eigenvalue nl 21 =       -0.19422214
 ---------------------------------------
 Maximum eigenvalue error:   1.59E-05
 
 Derived cutoff energies: C=   6 M=  10 F=  12 E=  16
 
 
 ***************************************
 
 Pseudo atomic calculation performed for H 1s1
 
 Converged in 13 iterations to a total energy of -12.4498 eV
 
 
 Pseudo atomic calculation performed for C 2s2 2p2
 
 Converged in 18 iterations to a total energy of -148.4701 eV
 
 Calculation not parallelised.

 ************************************ Title ************************************
 CASTEP calculation from Materials Studio

 ***************************** General Parameters ******************************
  
 output verbosity                               : normal  (1)
 write checkpoint data to                       : C2H6.check
 type of calculation                            : single point energy
 stress calculation                             : off
 density difference calculation                 : off
 electron localisation func (ELF) calculation   : off
 Hirshfeld analysis                             : on
 unlimited duration calculation
 timing information                             : on
 memory usage estimate                          : on
 write final potential to formatted file        : off
 write final density to formatted file          : off
 write BibTeX reference list                    : on
 write OTFG pseudopotential files               : on
 checkpoint writing                             : both castep_bin and check files
  
 output         length unit                     : A
 output           mass unit                     : amu
 output           time unit                     : ps
 output         charge unit                     : e
 output           spin unit                     : hbar/2
 output         energy unit                     : eV
 output          force unit                     : eV/A
 output       velocity unit                     : A/ps
 output       pressure unit                     : GPa
 output     inv_length unit                     : 1/A
 output      frequency unit                     : cm-1
 output force constant unit                     : eV/A**2
 output         volume unit                     : A**3
 output   IR intensity unit                     : (D/A)**2/amu
 output         dipole unit                     : D
 output         efield unit                     : eV/A/e
 output        entropy unit                     : J/mol/K
  
 wavefunctions paging                           : none
 random number generator seed                   : randomised (125650112)
 data distribution                              : optimal for this architecture
 optimization strategy                          : maximize speed(+++)

 *********************** Exchange-Correlation Parameters ***********************
  
 using functional                               : Perdew Wang (1991)
 relativistic treatment                         : Koelling-Harmon
 DFT+D: Semi-empirical dispersion correction    : off

 ************************* Pseudopotential Parameters **************************
  
 pseudopotential representation                 : reciprocal space
 <beta|phi> representation                      : reciprocal space
 spin-orbit coupling                            : off

 **************************** Basis Set Parameters *****************************
  
 plane wave basis set cut-off                   :   408.2000   eV
 size of standard grid                          :     1.7500
 size of   fine   grid                          :     2.1000
 size of   fine   gmax                          :    21.7367   1/A
 largest prime factor in FFT                    :          5
 finite basis set correction                    : none

 **************************** Electronic Parameters ****************************
  
 number of  electrons                           :  14.00    
 net charge of system                           :  0.000    
 net spin   of system                           :  1.000    
 number of  up  spins                           :  7.500    
 number of down spins                           :  6.500    
 treating system as spin-polarized
 number of bands                                :         12

 ********************* Electronic Minimization Parameters **********************
  
 Method: Treating system as metallic with density mixing treatment of electrons,
         and number of  SD  steps               :          1
         and number of  CG  steps               :          4
  
 total energy / atom convergence tol.           : 0.1000E-05   eV
 eigen-energy convergence tolerance             : 0.6667E-06   eV
 max force / atom convergence tol.              : ignored
 convergence tolerance window                   :          3   cycles
 max. number of SCF cycles                      :        100
 number of fixed-spin iterations                :          6
 smearing scheme                                : Gaussian
 smearing width                                 : 0.1000       eV
 Fermi energy convergence tolerance             : 0.2721E-13   eV
 periodic dipole correction                     : NONE

 ************************** Density Mixing Parameters **************************
  
 density-mixing scheme                          : Pulay
 max. length of mixing history                  :         20
 charge density mixing amplitude                : 0.5000    
   spin density mixing amplitude                :  2.000    
 cut-off energy for mixing                      :  408.2       eV
 charge density mixing g-vector                 :  1.500       1/A
   spin density mixing g-vector                 :  1.500       1/A

 *********************** Population Analysis Parameters ************************
  
 Population analysis with cutoff                :  3.000       A

 *******************************************************************************
  
 
                           -------------------------------
                                      Unit Cell
                           -------------------------------
        Real Lattice(A)                      Reciprocal Lattice(1/A)
  10.0000000   0.0000000   0.0000000        0.6283185   0.0000000   0.0000000
   0.0000000  10.0000000   0.0000000        0.0000000   0.6283185   0.0000000
   0.0000000   0.0000000  10.0000000        0.0000000   0.0000000   0.6283185
 
                       Lattice parameters(A)       Cell Angles
                    a =   10.000000          alpha =   90.000000
                    b =   10.000000          beta  =   90.000000
                    c =   10.000000          gamma =   90.000000
 
                       Current cell volume = 1000.000000       A**3
 
                           -------------------------------
                                     Cell Contents
                           -------------------------------
                         Total number of ions in cell =    8
                      Total number of species in cell =    2
                        Max number of any one species =    6
 
            xxxxxxxxxxxxxxxxxxxxxxxxxxxxxxxxxxxxxxxxxxxxxxxxxxxxxxxxxxxx
            x  Element    Atom        Fractional coordinates of atoms  x
            x            Number           u          v          w      x
            x----------------------------------------------------------x
            x  H            1        -0.532333   0.393600   0.438145   x 
            x  H            2        -0.534181   0.573476   0.390220   x 
            x  H            3        -0.533667   0.525038   0.569968   x 
            x  H            4        -0.303126   0.471780   0.362299   x 
            x  H            5        -0.302617   0.423822   0.542180   x 
            x  H            6        -0.304470   0.603567   0.493780   x 
            x  C            1        -0.495394   0.497759   0.466108   x 
            x  C            2        -0.341402   0.499340   0.466093   x 
            xxxxxxxxxxxxxxxxxxxxxxxxxxxxxxxxxxxxxxxxxxxxxxxxxxxxxxxxxxxx
 
 
                         No user defined ionic velocities
 
                           -------------------------------
                                   Details of Species
                           -------------------------------
 
                               Mass of species in AMU
                                    H    1.0080000
                                    C   12.0109997
 
                          Electric Quadrupole Moment (Barn)
                                    H    0.0028600 Isotope  2
                                    C    0.0332700 Isotope 11
 
                          Files used for pseudopotentials:
                                    H 1|0.6|9|10|15|10UU(qc=8)[]
                                    C 2|1.4|11|12|14.7|20UU:21UU(qc=7)[]
 
                           -------------------------------
                              k-Points For BZ Sampling
                           -------------------------------
                       MP grid size for SCF calculation is  1  1  1
                            with an offset of   0.000  0.000  0.000
                       Number of kpoints used =             1
 
                           -------------------------------
                               Symmetry and Constraints
                           -------------------------------
 
                      Maximum deviation from symmetry =  0.00000         ANG
 
         There are no symmetry operations specified or generated for this cell
         There are no ionic constraints specified or generated for this cell
                      Point group of crystal =     1: C1, 1, 1
                      Space group of crystal =     1: P1, P 1
 
 
                         Centre of mass is NOT constrained
 
                         Number of cell constraints= 0
                         Cell constraints are:  1 2 3 4 5 6
 
                         External pressure/stress (GPa)
                          0.00000   0.00000   0.00000
                                    0.00000   0.00000
                                              0.00000
  
+---------------- MEMORY AND SCRATCH DISK ESTIMATES PER PROCESS --------------+
|                                                     Memory          Disk    |
| Baseline code, static data and system overhead        0.0 MB         0.0 MB |
| BLAS internal memory storage                          0.0 MB         0.0 MB |
| Model and support data                              221.1 MB         0.0 MB |
| Electronic energy minimisation requirements          82.8 MB         0.0 MB |
| Force calculation requirements                       75.4 MB         0.0 MB |
|                                               ----------------------------- |
| Approx. total storage required per process          303.9 MB         0.0 MB |
|                                                                             |
| Requirements will fluctuate during execution and may exceed these estimates |
+-----------------------------------------------------------------------------+
------------------------------------------------------------------------ <-- SCF
SCF loop      Energy           Fermi           Energy gain       Timer   <-- SCF
                               energy          per atom          (sec)   <-- SCF
------------------------------------------------------------------------ <-- SCF
Initial   9.61751005E+001  0.00000000E+000                         6.50  <-- SCF
      1  -3.30820427E+002  2.59158821E+000   5.33744410E+001       7.97  <-- SCF
      2  -4.09115722E+002 -6.42329065E+000   9.78691188E+000       8.78  <-- SCF
      3  -4.12060460E+002 -6.63676347E+000   3.68092281E-001       9.92  <-- SCF
      4  -4.09373333E+002 -5.70107239E+000  -3.35890962E-001      12.20  <-- SCF
      5  -4.08950665E+002 -5.24814253E+000  -5.28335203E-002      14.45  <-- SCF
      6  -4.12499113E+002 -1.97681288E+000   4.43556019E-001      16.67  <-- SCF
      7  -4.10283904E+002 -2.21225184E+000  -2.76901126E-001      18.78  <-- SCF
      8  -4.09967225E+002 -2.02592005E+000  -3.95848040E-002      20.98  <-- SCF
      9  -4.09572912E+002 -2.16329037E+000  -4.92891471E-002      23.14  <-- SCF
     10  -4.12474785E+002 -1.64575569E+000   3.62734119E-001      25.31  <-- SCF
     11  -4.11534769E+002 -1.74236707E+000  -1.17502044E-001      27.45  <-- SCF
     12  -4.11804839E+002 -1.42167622E+000   3.37587716E-002      29.69  <-- SCF
     13  -4.12571065E+002 -1.35568962E+000   9.57782805E-002      31.84  <-- SCF
     14  -4.11887201E+002 -1.36520878E+000  -8.54830294E-002      34.02  <-- SCF
     15  -4.12600747E+002 -1.12320432E+000   8.91932436E-002      36.33  <-- SCF
     16  -4.12604417E+002 -1.13294374E+000   4.58725105E-004      38.80  <-- SCF
     17  -4.12626501E+002 -1.13266162E+000   2.76052649E-003      40.94  <-- SCF
     18  -4.12629122E+002 -1.12190405E+000   3.27689477E-004      43.27  <-- SCF
     19  -4.12630183E+002 -1.17713067E+000   1.32529602E-004      45.53  <-- SCF
     20  -4.12633555E+002 -1.18330272E+000   4.21542324E-004      47.72  <-- SCF
     21  -4.12632056E+002 -1.19123982E+000  -1.87400804E-004      49.94  <-- SCF
     22  -4.12630933E+002 -1.22208448E+000  -1.40366648E-004      51.98  <-- SCF
     23  -4.12631826E+002 -1.17923551E+000   1.11603542E-004      54.17  <-- SCF
     24  -4.12631557E+002 -1.17586400E+000  -3.35170527E-005      56.34  <-- SCF
     25  -4.12631752E+002 -1.19303630E+000   2.43787452E-005      58.70  <-- SCF
     26  -4.12632007E+002 -1.14149237E+000   3.18507976E-005      60.94  <-- SCF
     27  -4.12632029E+002 -1.13130599E+000   2.77012353E-006      63.17  <-- SCF
     28  -4.12632032E+002 -1.12927994E+000   3.08670568E-007      65.41  <-- SCF
     29  -4.12632046E+002 -1.12481006E+000   1.71402904E-006      67.42  <-- SCF
     30  -4.12632057E+002 -1.12163135E+000   1.42486125E-006      69.52  <-- SCF
     31  -4.12632059E+002 -1.12211767E+000   2.34012179E-007      71.50  <-- SCF
     32  -4.12632060E+002 -1.12458231E+000   1.43695557E-007      73.53  <-- SCF
------------------------------------------------------------------------ <-- SCF
 
Integrated Spin Density     =    0.153019E-03 hbar/2                        
Integrated |Spin Density|   =    0.208559E-03 hbar/2                        
 
Final energy, E             =  -412.6320600568     eV
Final free energy (E-TS)    =  -412.6320600568     eV
(energies not corrected for finite basis set)
 
NB est. 0K energy (E-0.5TS)      =  -412.6320600568     eV
 

Writing analysis data to C2H6.castep_bin

Writing model to C2H6.check
 
 *********************** Forces ***********************
 *                                                    *
 *            Cartesian components (eV/A)             *
 * -------------------------------------------------- *
 *                   x            y            z      *
 *                                                    *
 * H         1      0.15731      1.12178      0.30841 *
 * H         2      0.17440     -0.82897      0.81453 *
 * H         3      0.16992     -0.29141     -1.11962 *
 * H         4     -0.16687      0.30012      1.11964 *
 * H         5     -0.17654      0.82513     -0.82102 *
 * H         6     -0.14882     -1.12857     -0.30027 *
 * C         1     -0.35688      0.00093     -0.00090 *
 * C         2      0.34748      0.00098     -0.00077 *
 *                                                    *
 ******************************************************
 
 Pseudo atomic calculation performed for H 1s1
 
 Converged in 13 iterations to a total energy of -12.4498 eV
 
 
 Pseudo atomic calculation performed for C 2s2 2p2
 
 Converged in 18 iterations to a total energy of -148.4701 eV
 
Charge spilling parameter for spin component 1 = 1.76%
Charge spilling parameter for spin component 2 = 1.76%
 
     Atomic Populations (Mulliken)
     -----------------------------
Species   Ion     s      p      d      f     Total  Charge (e)  Spin (hbar/2)
===========================================================================
  H        1     0.76   0.00   0.00   0.00   0.76     0.24        0.00
  H        2     0.76   0.00   0.00   0.00   0.76     0.24        0.00
  H        3     0.76   0.00   0.00   0.00   0.76     0.24        0.00
  H        4     0.76   0.00   0.00   0.00   0.76     0.24        0.00
  H        5     0.76   0.00   0.00   0.00   0.76     0.24        0.00
  H        6     0.76   0.00   0.00   0.00   0.76     0.24        0.00
  C        1     1.39   3.33   0.00   0.00   4.72    -0.72       -0.00
  C        2     1.39   3.33   0.00   0.00   4.72    -0.72       -0.00
===========================================================================
 
            Bond              Population        Spin       Length (A)
======================================================================
          H 6 -- C 2               0.81         0.00          1.13990
          H 1 -- C 1               0.81         0.00          1.13997
          H 3 -- C 1               0.81         0.00          1.14000
          H 2 -- C 1               0.81         0.00          1.14002
          H 5 -- C 2               0.81         0.00          1.14003
          H 4 -- C 2               0.81         0.00          1.14007
          C 1 -- C 2               0.61         0.00          1.54001
          H 5 -- H 6              -0.10        -0.00          1.86157
          H 1 -- H 3              -0.10        -0.00          1.86158
          H 1 -- H 2              -0.10        -0.00          1.86160
          H 2 -- H 3              -0.10        -0.00          1.86161
          H 4 -- H 6              -0.10        -0.00          1.86163
          H 4 -- H 5              -0.10        -0.00          1.86165
          H 6 -- C 1              -0.13         0.00          2.20029
          H 3 -- C 2              -0.13         0.00          2.20037
          H 5 -- C 1              -0.13         0.00          2.20038
          H 1 -- C 2              -0.13        -0.00          2.20038
          H 2 -- C 2              -0.13        -0.00          2.20038
          H 4 -- C 1              -0.13        -0.00          2.20040
          H 2 -- H 6              -0.03        -0.00          2.53766
          H 1 -- H 4              -0.03        -0.00          2.53772
          H 3 -- H 5              -0.03        -0.00          2.53773
          H 3 -- H 6              -0.03        -0.00          2.53973
          H 1 -- H 5              -0.03        -0.00          2.53981
          H 2 -- H 4              -0.03        -0.00          2.53984
======================================================================
 
 
     Hirshfeld Analysis
     ------------------
Species   Ion     Hirshfeld Charge (e)  Spin (hbar/2)
===================================================
  H        1                 0.03        0.00
  H        2                 0.03        0.00
  H        3                 0.03        0.00
  H        4                 0.03        0.00
  H        5                 0.03        0.00
  H        6                 0.03        0.00
  C        1                -0.11        0.00
  C        2                -0.11        0.00
===================================================
 

Writing analysis data to C2H6.castep_bin

Writing model to C2H6.check
 
 A BibTeX formatted list of references used in this run has been written to 
 C2H6.bib
 
Initialisation time =      4.73 s
Calculation time    =     72.75 s
Finalisation time   =      1.83 s
Total time          =     79.31 s
