#BIOSYM hessian 1
@Type: Hessian Update
@Units
 distance: 	A
 energy: 	Kcal/Mol
#header
@natom 4

#label
L1      L2      L3      M4

#element
Li Li Li Mn

#matrix
12
 1.799247318385E+03
 1.672569802271E+02 2.177532313939E+03
 6.448714087524E+01 -2.433436705254E+01 2.231650415331E+03
 6.431694047008E+02 -2.438297342297E+02 -9.448999421972E+01 1.305576826408E+03
 1.021151296330E+02 -3.900855799754E+01 -1.574325923394E+01 -1.466193827585E+02 2.220321972606E+03
 -1.165111047210E+01 4.330680017904E+00 1.475532767839E+00 1.748428873644E+01 3.500263108139E+00 2.240741038409E+03
 -1.762833200056E+02 6.681774134583E+01 2.587948812887E+01 2.564397394996E+02 4.027524196770E+01 -4.776835213345E+00 2.170553311426E+03
 -3.485294533008E+02 1.319847131815E+02 5.082751279782E+01 5.077534328012E+02 8.082603996176E+01 -9.141128363155E+00 -1.391657642722E+02 1.965783960455E+03
 -3.013053540348E+02 1.141862698069E+02 4.420482629972E+01 4.384511033892E+02 6.897691188108E+01 -8.132629550884E+00 -1.201606168941E+02 -2.378550663385E+02 2.035465939263E+03
 -2.528728235988E+01 9.755012656982E+00 4.123365215784E+00 3.566015011200E+01 4.229011157122E+00 -1.056343051221E+00 -9.863610198993E+00 -2.005821522843E+01 -1.698513246022E+01 2.240336863168E+03
 7.915734344061E+01 -2.966234840222E+01 -1.074988651119E+01 -1.173043158135E+02 -2.129333385036E+01 1.310185236896E+00 3.207278095872E+01 6.225140712273E+01 5.469188465065E+01 6.074191414865E+00 2.229550395851E+03
 2.484693236315E+02 -9.418258277205E+01 -3.648465367739E+01 -3.614453979063E+02 -5.673391575596E+01 6.762179094533E+00 9.905796397865E+01 1.961686819036E+02 1.693079847094E+02 1.391811029621E+01 -4.525218337560E+01 2.101260610594E+03

