#BIOSYM hessian 1
@Type: Hessian Update
@Units
 distance: 	A
 energy: 	Kcal/Mol
#header
@natom 19

#label
L1      L2      L3      L4      L5      L6      L7      L8      L9      L10     L11     L12     L13     L14     L15     L16     L17     L18     L19

#element
Li Li Li Li Li Li Li Li Li Li Li Li Li Li Li Li Li Li Li

#matrix
57
 1.892190470787E+01
 -3.575496862758E+00 6.852854600038E+00
 -9.821463097688E-01 -3.527143954584E+00 6.050035486329E+00
 1.431219611933E+00 -3.964396592046E-01 -2.985370917626E-01 1.316352430363E+01
 8.865159931525E-01 -6.845834001715E-01 -7.922278558203E-01 -8.498863642565E-01 5.123482636972E+00
 -4.685964856921E-01 3.974011814527E-01 5.156688636688E-01 -6.540091685423E-01 1.291661789844E+00 1.486250456637E+01
 1.040192937029E+00 7.859614169037E-01 3.298301741509E-01 1.298072224832E+00 1.242417121108E-01 1.744544930196E+00 9.515250756521E+00
 8.298500109301E-01 -7.357913905994E-02 -5.016021819084E-02 -1.264123673397E+00 1.175587149078E+00 2.337013681548E+00 -1.330171740940E+00 2.707291380513E+01
 -1.412831212686E+00 7.777575916186E-01 7.317090377756E-02 1.059927646903E+00 -1.163943726041E+00 -1.522842455142E+00 2.640616554409E+00 -1.340592945553E+01 1.097039383945E+01
 4.946285521959E-01 5.850095594691E-01 -2.004502449686E-01 -3.127219748233E+00 1.264617191605E-01 9.826703564095E-01 9.137721862658E-01 -2.388933281536E+00 6.992280359971E-01 2.812647871136E+01
 -4.437674699563E-02 -6.695184613425E-01 1.040022976084E+00 3.384780473280E-01 2.173462549735E-01 -1.616539848882E+00 3.243737217122E-01 -4.333500859655E-01 8.993685729450E-01 -1.409219227712E+00 2.513445136970E+01
 1.326788212162E-01 1.124743462315E+00 -3.225767151648E-01 1.120590590650E+00 1.228040657080E+00 -1.445162042313E+00 1.769642128997E-01 -1.748979438589E+00 1.076296179806E+00 -7.817644861078E+00 -5.262936346941E+00 2.207888317775E+01
 1.092249842990E+00 -3.825183058966E-01 -1.917233218647E-01 -4.411591713840E-02 2.180732877213E-01 -3.886507237408E-01 -1.329604844508E+00 5.566819874634E+00 -2.498182450323E+00 -4.616856752869E+00 -1.077670914648E+00 -2.569090565410E+00 2.026577785250E+01
 5.235823842665E-01 -8.750139229920E-01 2.545655942952E-01 3.502246359093E-01 -1.016130084160E+00 2.244664544925E-01 1.989642500954E+00 -9.274190918063E+00 3.995391621176E+00 -6.844439431832E-01 -4.786599931021E+00 -4.412274751355E-01 -3.217212474734E+00 1.527927249642E+01
 1.763699816631E+00 1.283251256991E-01 6.925382436331E-01 -2.241104531087E+00 3.340909780884E-01 -4.583643521955E-01 -7.857588725073E-01 5.614058179571E+00 -3.260417748405E+00 -1.860766962876E+00 4.272845345699E-01 -1.489640371534E+00 6.852548127408E+00 -2.219971191998E+00 2.387940398307E+01
 -1.300135454050E+01 4.802665371793E+00 3.922622059696E+00 -1.696200164528E+00 -3.544512832486E+00 4.926094356137E+00 -1.671512458300E+00 -1.490894932417E+00 1.443639832784E+00 6.094929064748E-01 -8.417096082679E-01 -7.852469793092E-01 -1.187466079210E+00 -7.607660931749E-01 -4.290523714742E-01 2.796866099503E+01
 -8.852362059606E-01 1.987850599423E-01 -1.404294670664E+00 -1.511263238251E+00 -1.611236603961E+00 4.188098028989E+00 -9.875648111057E-01 5.916593039973E-01 -1.855978300127E+00 -1.016989853843E-01 9.014109212903E-02 -7.781492990563E-01 6.400080927186E-01 9.309854794509E-01 -1.040405676469E+00 -8.356752104616E-01 1.414386724306E+01
 5.336044578196E+00 -1.391528835312E+00 -2.823270355244E-01 4.191758862627E+00 2.048354228987E+00 -5.451482034065E+00 2.528048675078E+00 -1.994803524155E-01 7.412494542904E-01 -1.898884530240E+00 -2.706525529180E-01 2.706084418792E+00 7.006677702089E-01 3.666608138748E-01 -5.994641205230E-01 -7.858982539401E+00 3.867933326960E+00 1.724351098047E+01
 -3.230930776042E+00 4.522432606498E-01 -6.774925010952E-01 -1.335220141919E-01 1.231614329655E+00 -3.528551795773E-01 -8.894838893079E-01 -2.171889823787E+00 1.239579560363E+00 2.473769342593E-01 1.966135246843E+00 5.800605477278E-01 -1.105154116361E-01 4.655279072330E-01 -5.109349145291E-01 -7.686258300973E+00 1.598196174254E+00 -4.225280862430E-01 1.442192338072E+01
 -8.929237511715E-01 9.837173874125E-01 6.374670004317E-01 -6.172161026713E-01 2.710984222861E-01 3.024544963277E+00 1.466203339783E+00 -2.195632912241E+00 1.121342421572E+00 5.536316980450E-01 -2.030821755502E-01 2.361188461240E-01 -2.010585661163E-01 1.393605364252E-01 9.350436067994E-02 2.848163163351E+00 -1.074259509510E+00 -1.832241348661E+00 1.564024797803E+00 3.131889665819E+00
 8.649561940285E-01 3.546881909949E-01 2.899359069243E-01 -5.363742177226E-01 4.334646395627E+00 -3.186770897311E+00 9.823519517019E-02 1.406032901084E+00 -4.452672707877E-02 -1.211914582825E+00 5.624323873561E-02 1.277710124453E+00 2.176395133489E+00 -1.970198913893E+00 1.105448710483E+00 -9.387755225927E-01 -6.808890853668E+00 1.405112085643E+00 1.620688586483E+00 1.092348850171E+00 1.111642593796E+01
 5.866918450610E-01 -5.533120160847E-01 8.062994454111E-02 -8.372347003160E-01 5.453600394343E-01 -1.584943736155E+00 9.463537063681E-01 7.022933167187E-01 6.309763016971E-01 -7.548195829485E+00 1.797206384867E+00 5.159657280835E+00 -2.205452438289E-01 -8.386067786011E-01 1.233218937460E+00 4.008503106738E-01 -5.532350399320E-01 3.159435342835E-01 -9.357580404454E-01 -1.316749713065E+00 1.442116314019E+00 1.721193946064E+01
 2.326062936719E+00 -1.934180187474E-01 -5.628873968711E-01 2.218316755689E-01 -4.061540089819E-02 7.219867634720E-01 -1.281402903400E+00 -1.561396631735E+00 5.254924564120E-02 1.165737120499E-01 -2.571517983242E-01 3.984001461173E-01 4.300397473212E-01 -3.655055933117E+00 -2.002563073531E+00 -3.460390439326E+00 1.390148397097E+00 4.787862065762E-01 1.592302813678E+00 8.749446129767E-01 -7.782726792805E-01 -2.003288428755E+00 1.713387093462E+01
 -7.621842633541E-01 5.342465074453E-01 -4.661482617463E-01 -5.849940676450E-01 1.418492986981E-02 -1.177981296203E-01 1.201645685101E+00 -1.197136299995E+00 -1.418949986665E-01 6.048931917497E+00 -1.082617859619E+00 -4.678026308396E+00 -5.429476687373E-01 -2.315473739640E+00 -4.974475322157E+00 9.918718014043E-01 1.158163722888E+00 5.570242182282E-01 -7.602713993489E-01 -2.927796234431E-01 -1.033473816277E+00 -7.411402041016E-01 3.646365170329E+00 1.393709534755E+01
 -2.354810650133E+00 -2.497417832673E-02 1.602673910689E+00 1.685084118799E+00 -6.564579358881E-01 -1.479087526790E+00 3.117721750684E+00 3.866442872955E+00 -3.104374285541E+00 4.964008599862E+00 -4.218505695456E+00 6.312124409103E-01 1.719103818707E+00 -1.449209199825E+00 4.060078806714E+00 -3.297386358333E+00 -4.510832844242E+00 -2.623851915607E+00 9.878667596238E-01 8.942468047306E-01 -2.526895866276E+00 -1.846047940810E+00 -2.224455121566E+00 2.380830640341E+00 2.367128681508E+01
 -1.305123543310E+00 -8.997243343825E-01 -1.688583294997E+00 5.536159316782E-01 4.163468991346E-01 -1.644588979706E+00 -3.791204943020E-01 -1.847574960740E+00 -3.815871181000E+00 -2.483716630071E+00 1.435278637996E+00 3.181374322947E-01 -2.510498680773E+00 7.339834298666E-01 -3.179385175781E+00 -3.204429192827E+00 1.222479101425E+00 -3.806120775951E+00 3.336218179353E-01 -3.330973335837E-01 -2.675886552963E+00 1.232249987630E-01 1.250669529117E-01 3.245743390786E+00 4.110095456933E+00 1.805078092255E+01
 -2.326340873471E+00 -4.539232518036E-01 -3.979111335263E-01 -3.319915944949E+00 -2.146186062211E+00 -9.512392552057E+00 -1.970914448675E+00 -1.902247026532E+00 -2.239963659060E+00 -3.213677327614E-01 -3.588919408716E-01 -8.572070450031E-01 -8.797048099547E-01 1.294120810644E+00 -6.607313924205E-01 3.250541594543E+00 -2.098423857802E+00 -2.133566766398E+00 -3.494587860477E+00 -1.366063174106E+00 -3.259434630104E-01 1.203335316350E+00 -2.248524069810E+00 3.664318755490E+00 3.779654764208E+00 9.384308143292E+00 1.764399522370E+01
 -3.838934017818E-01 8.870413292691E-01 9.542449632189E-01 -1.805404381311E-01 -1.092185831247E-02 -7.716789114573E-01 -2.300569449816E+00 -4.790763037679E+00 3.341065475648E+00 -2.081146481852E+00 -3.504425637994E-01 6.825150014505E-01 -7.115918859686E+00 2.336294428746E+00 -5.125935057570E-02 1.097969206317E+00 -3.151844292858E+00 5.485549131601E-01 9.786121527038E-01 3.178673223343E-01 -1.001426509232E+00 9.151845328822E-01 8.451181563146E-01 1.065527026618E+00 -1.170489442237E+00 1.191783600267E+00 -1.071153678172E+00 1.554888545704E+01
 -6.151799653857E-01 1.204736436168E-01 -1.359160822325E-01 -2.049164792756E-01 -1.551245374416E+00 -1.315694527693E+00 -2.071944139350E+00 -2.769116092523E+00 2.157840178859E+00 6.055986203824E-01 -6.567547639672E+00 -2.545169920825E+00 1.187301351946E+00 4.238374536961E-01 -2.268495636494E+00 6.074929501646E-01 2.077049330342E-01 -1.262247974427E+00 -3.269134227084E-01 -2.672168138915E-01 -6.743131621428E-01 1.383456693852E+00 6.823305067295E-01 -6.614610790187E-01 -2.865166641897E-01 -1.008849231053E+00 1.154262854751E-01 1.186887888568E+00 1.071624886365E+01
 -2.097325719025E-01 -4.462564678320E-01 9.302279455154E-01 -1.056775240345E+00 -4.520338514130E-01 1.678177306054E-01 2.327986544494E+00 5.427707066913E+00 -5.574592897302E-01 -2.773924573719E-01 -1.579995195987E+00 4.698127220549E-01 -1.237062785136E-01 -8.744538497207E-01 -9.552597641029E-01 7.602021829948E-02 1.499625964993E+00 9.169650598938E-01 -1.832416154573E+00 -2.718781314859E-01 -8.682909656734E-01 6.562431148281E-01 -1.459792996647E+00 8.751735363142E-01 1.533137460047E+00 -1.164089330878E-01 9.370953334250E-01 9.209545515040E-01 5.011449105922E+00 1.249053655114E+01
 -1.006969945520E+00 2.536060666847E+00 -2.489570634753E+00 8.586367583495E-02 -1.491110984386E-01 3.866977857768E-01 4.713075408944E-01 2.013302776546E+00 7.085171815682E-01 -3.194118149490E+00 1.879223437646E+00 -1.058429962163E+00 4.562825541533E-01 -1.028393952827E+00 2.034987664012E+00 -2.883070391522E+00 2.654334651429E+00 3.038221752942E+00 1.077773718657E+00 -7.713490449347E-01 -8.647744809230E-01 -3.263816194290E+00 -3.983086546540E-01 5.517079656695E-01 1.507070359341E+00 -3.477155161359E+00 -2.195692847500E+00 -3.120626026006E+00 -1.255369828584E+00 -7.932763561009E-01 1.609060628309E+01
 4.360364264568E+00 -5.078658783646E+00 2.754479932387E+00 1.318040526285E+00 -4.129753162683E-01 -5.343988254496E-01 1.318515120755E+00 2.280079282348E+00 -1.148432514470E+00 3.484537581233E+00 -5.434042700695E-01 2.207287141979E-01 1.363008876060E+00 1.232300223199E+00 1.063658547709E+00 -3.174128347212E+00 1.463879719484E+00 2.582360877484E+00 -3.786257785104E-01 -1.043340553105E+00 -1.102444999455E+00 1.358550044102E+00 -1.346511620535E+00 -1.398312747902E+00 4.804464460180E-01 -1.524577883633E+00 -1.091330003214E+00 -2.972036930813E+00 -3.625914290757E+00 -1.600026130774E+00 -9.269007224167E+00 1.645997522988E+01
 -5.437061881673E+00 3.556815195682E+00 -5.007108310113E+00 1.718337432115E+00 1.614572192642E+00 4.220114374808E-01 -1.518139994263E+00 -1.375558017024E+00 6.963853574074E-01 -2.985522922171E+00 1.114176818719E+00 -2.739432145684E+00 -4.580891494338E-01 -7.539429909925E-01 -9.915298164884E-01 2.909397903726E+00 -3.053610721345E+00 -3.928190717838E+00 -1.481008233640E+00 1.323087269172E-01 1.439749399063E+00 -6.127644179738E-01 1.380620508267E-01 5.071692943295E-01 1.696482509488E-01 2.241937744591E+00 1.445342043938E-01 -2.599497684856E+00 -1.810084604080E+00 -7.519248175667E+00 4.686153765230E+00 -2.628896205397E+00 1.878759949743E+01
 -1.250642279005E+00 -2.049236277842E+00 -1.468222634287E+00 -1.912526306632E+00 4.744357732387E-01 -1.301644659273E+00 -7.871717793633E+00 -2.811345362987E+00 -3.836565343942E-01 1.533048470007E+00 -1.637246867791E+00 8.896280692661E-01 6.472797781538E-01 -4.006898086344E-01 1.064127060155E-01 2.430496506761E+00 3.358622035292E+00 -1.131401075496E+00 1.686962385387E+00 -2.933744702421E-01 -4.661868249426E-01 4.099345627700E-01 -2.350743427574E+00 8.610156653895E-01 -4.022771868120E+00 3.338964006244E+00 5.886273381084E+00 -5.111251679182E-03 1.524285849316E+00 -1.058244364483E+00 -4.663101301028E-01 4.180472044829E-01 1.537762378156E+00 1.565208080036E+01
 1.095177061753E+00 1.597478858718E+00 1.221532160279E+00 -4.566961005058E+00 -6.118099668224E-01 7.163877062268E-01 2.887463703891E-01 -3.948678213729E+00 3.636618654865E+00 3.394657573821E-01 -2.101410309790E+00 1.707641502760E+00 4.299330765951E-01 -9.074746566061E-01 3.652627698348E-01 2.480161556412E+00 -2.306292207871E+00 -6.675618656219E+00 -1.326607335109E+00 4.721294704302E-01 8.108612471666E-01 1.482246378316E+00 -2.693624880301E+00 1.902955785504E+00 3.670404519841E+00 6.707665193848E-01 1.256820847128E+00 9.064432421179E-01 1.343742929716E+00 2.703557862124E-01 2.810998011255E+00 -3.018483946363E+00 -8.574640196469E-02 -6.934767915517E-02 1.730566431952E+01
 2.966352554128E-02 4.676339048086E-01 7.046141980852E-01 2.618132551340E+00 -2.415166574386E-01 -2.187076323977E+00 -5.630589475826E+00 -3.652600905369E-01 -4.541784568827E+00 6.343308296112E-01 1.622562050187E+00 -1.324527647528E+00 -1.112710986794E+00 8.940077904300E-01 -5.647097628900E-01 7.665581893142E-01 -2.556707326269E+00 -3.950818820376E+00 2.399400953225E+00 -5.914294371664E-01 6.225420085039E-01 -2.985225165933E-01 1.777393950615E+00 -1.456883526355E+00 1.400081196684E+00 3.020264327569E+00 1.846395308654E+00 -1.047977776785E+00 9.718077617331E-01 -6.824255540518E+00 -2.278648248645E+00 -2.950813439513E+00 1.610955587753E+00 -3.694353763456E-01 -3.272782843532E+00 2.086520882931E+01
 6.982564311674E-01 -4.635831724127E-02 -1.838589832478E-01 8.287944474273E-01 3.035028158858E-01 -2.430056899323E+00 -9.870386422237E-01 1.869340130562E+00 -5.039998706265E-01 -1.827882191811E+00 3.949885701208E-01 -2.968681690810E-01 1.220365019163E+00 -5.443112225839E-01 -1.721408136954E+00 1.259321283407E-01 -7.415795775888E-02 7.150867791241E-01 -2.434499164513E+00 -3.130227072130E-01 8.406863997194E-02 -7.239309718769E+00 -3.119847558070E-02 -3.162120001511E+00 -7.387022363884E-01 3.046762939402E+00 1.837774940063E+00 -7.984554480902E-01 -9.973485270743E-01 1.083464244339E+00 -1.963868128080E+00 3.780834933725E+00 2.507706730474E+00 4.241436268133E-01 2.211381953812E+00 -1.955868152984E+00 1.322808701007E+01
 2.346122250995E-01 -2.511618218509E-01 -1.017014035904E+00 -7.023940293664E-02 1.354930573645E+00 -2.013491925182E+00 -3.566711822937E-01 -1.837804223085E+00 1.823542898097E-01 1.662906863464E-01 -1.752718640463E+00 -7.707444341916E-02 1.426555831373E-01 -6.411679111147E-01 -4.265823102367E-01 -9.654402214847E-01 -2.718967337471E+00 -7.850387020485E-02 -1.537936022438E+00 -5.847930331087E-01 1.332030948616E+00 6.264895754818E-01 -9.948171400835E-01 1.435699379898E+00 1.376291938717E-01 2.882918281220E+00 3.231399066417E+00 3.321309475192E-01 5.219246775653E-01 -1.348902306674E+00 8.907749518321E-01 -5.073629314154E+00 -4.502914545174E-01 8.417942271173E-01 5.632770091807E-02 4.431986271182E+00 -1.892047360115E+00 7.823670460962E+00
 -5.146970341467E-01 -2.705373490158E-01 1.404731154525E-01 -5.255385476809E-01 -1.570120704696E+00 9.867444660400E-01 4.243028104726E-01 3.213623367654E-02 -2.263756498839E-01 2.146047566060E-01 -1.231719084915E+00 -4.651270871433E+00 -6.039461733539E-01 -2.288833631504E+00 -1.991424683866E+00 -3.191321730788E-01 2.054573566212E+00 -5.012734848839E-01 1.934089034109E+00 1.035767214628E+00 -1.778352259843E+00 -5.819592725636E+00 9.364827217572E-01 -2.538764086277E+00 -1.530726094513E+00 2.720230130420E+00 1.360081994866E+00 -1.788457953981E-01 -1.131217786725E+00 -2.811790365112E+00 1.118407978251E+00 -1.226721016504E+00 -3.047555994163E+00 -2.807524417406E-02 8.993441552271E-02 -7.492027035152E-02 3.553659937572E+00 3.948991509113E+00 1.693235846638E+01
 -9.163629306746E-01 5.062914353209E-01 -8.782791942767E-01 1.010368645263E+00 -1.062505998683E+00 9.884386049357E-01 3.568358056579E-01 -2.467947462076E+00 -8.405903646310E-01 -1.596928729011E+01 2.678534417747E+00 5.172060917724E+00 -6.601638320055E+00 2.892492384893E+00 -8.600581758080E+00 -2.019980512478E+00 2.525319926341E+00 -3.540389142823E+00 3.090739852887E+00 2.591870862000E-01 -8.469347047927E-01 4.866240656732E+00 3.754078551916E+00 -3.160574999789E+00 -4.486645863117E+00 6.197784483696E+00 2.691928306119E+00 2.235121940987E+00 -1.101229869033E+00 2.631990766890E-01 -3.065040025321E+00 -8.126670087810E-01 -1.060677191963E-01 -3.577083201917E+00 4.706248330019E-01 8.729684383314E-01 1.436939484192E+00 -2.624071919182E+00 2.946229473831E+00 2.705543971893E+01
 9.308375537173E-01 4.380111697391E-01 -9.119214227029E-02 2.422096352630E-01 -1.580480612761E+00 2.402445164195E+00 -6.551701433187E-02 -1.776877275091E+00 1.532525218119E+00 4.693957270949E+00 -1.043108429353E+01 3.755274193959E+00 -1.101539432826E+00 3.846884477285E+00 1.587652420223E+00 4.336126982616E+00 -1.735675746516E+00 3.519040637994E-01 -1.006512357204E+00 1.972473420534E+00 -2.203723204724E+00 1.234214513431E+00 -3.338681751078E+00 -1.086998631686E+00 4.388049760818E+00 -5.285253078480E+00 -1.075221384645E+00 -4.029140528557E-04 2.707688089267E+00 -1.208291562615E+00 8.224291745318E-01 7.427306938550E-01 1.621173503006E+00 4.765919402184E+00 -1.513166472352E+00 -5.415134435824E-02 -4.419129055319E+00 -2.053222055899E-01 -3.463088275490E+00 -9.735184864900E+00 1.782028602060E+01
 -2.245867197879E-01 -9.602378842096E-01 -1.276882632201E+00 3.675849257872E-01 -1.571763193577E-01 3.927781068414E+00 -9.915808156718E-01 -3.626924386963E+00 7.966532927695E-02 6.986939320679E+00 7.413978084989E+00 -9.212095202227E+00 -4.748247589134E+00 3.460233235326E+00 -3.013234601137E+00 -1.072761420170E+00 6.395649639393E-01 -7.748716096563E+00 7.362963211022E-01 -1.707834284295E-01 -2.065956228261E+00 -1.485973705365E+00 -1.652382478651E+00 -1.875440731087E+00 -2.690045328188E+00 2.535061899883E+00 -2.004275238815E+00 -1.276170304727E+00 1.725092094585E+00 -7.974718790438E-01 -4.054975538351E+00 1.149346501334E+00 3.248088265628E+00 -6.061471276919E-01 -2.062491226087E+00 4.538032876122E+00 -7.389763299549E-01 -1.535541982654E+00 -1.800381736012E+00 3.546321694513E+00 -4.078421070803E+00 1.719619228631E+01
 1.068214516219E+00 -1.079645959452E+00 -6.928128382847E-01 -8.205128909364E-02 -5.259243670944E-01 1.301726690944E+00 -7.546042154237E-01 -4.875611315613E-01 -4.748809063990E-01 2.152621916755E-01 -2.412436386974E-01 3.543534732495E-01 -1.320753968283E+00 -1.683066542080E+00 2.657116299814E+00 -8.408082406216E-01 2.178897704536E+00 -9.772146576492E-01 -4.977563320482E+00 -2.416019478382E+00 -3.817245867583E+00 -1.178530136359E+00 -1.406360300976E+00 -1.773811490247E-02 -2.882150418245E+00 1.515177895682E+00 -1.908835060171E+00 3.189854877507E-01 4.975507755527E-01 -1.932562062976E-01 -1.249249107868E+00 1.202066487304E+00 7.534259066686E-01 -1.382825260339E+00 -2.816020604459E-01 2.697058080202E-01 5.835028891569E-01 1.413392401810E+00 -9.163458427049E-01 -1.791309997614E+00 -2.982087014199E+00 3.471440056298E+00 1.089619310446E+01
 -1.566025501051E+00 -4.943907597070E-01 -1.230344522006E-02 1.005047981623E+00 1.295268818582E+00 -2.870248580077E-01 -1.027175671224E+00 -3.503486217217E+00 1.688795862321E+00 -1.328521821508E+00 -2.228323820458E-01 1.801583634313E+00 -1.203830602676E+00 -1.334223659120E+00 2.025963379440E+00 -1.816247741294E-01 1.165070732201E+00 1.966859146776E+00 -2.132104341465E+00 -2.182822720379E+00 5.867521522385E-01 -4.737620716397E+00 -7.508962651943E+00 1.119829126159E-01 -4.087644743617E+00 -1.865684047623E+00 -2.520526695344E+00 1.155711230834E+00 -3.296285253248E-02 8.207242372588E-01 1.071649634602E+00 -5.349322147930E-01 -6.164367558082E-01 -7.639072943070E-02 1.158078172503E+00 -2.198282996925E+00 1.037892134996E+00 1.331665594487E+00 -1.406292564865E+00 -1.091053797332E+00 -5.313076155695E+00 2.045449611889E+00 1.051755959289E+01 2.094403436950E+01
 -4.914477528612E-01 -5.894392199279E-01 -8.839857554469E-01 3.847622728353E-01 -1.485288673588E+00 1.676064892420E+00 -3.457841083974E+00 2.639327569617E+00 -9.469817942332E-01 2.479705937672E+00 6.023155169320E-02 -7.012601310454E-01 2.486095693984E+00 1.214142805260E+00 -6.967988372060E+00 8.559421027970E-01 9.258758314787E-01 -2.064391238391E+00 -3.901520541609E+00 -2.439404765913E+00 -5.972837572217E+00 4.960797207811E-01 1.111137576876E+00 -1.217881582253E+00 7.744387544038E-02 1.990792377953E-01 -1.319238618612E+00 1.964486072791E+00 9.357877169342E-01 -1.058412198832E+00 -1.565708140699E+00 8.312052685307E-01 1.249595786674E+00 6.448097700037E-01 -6.850819520788E-01 5.763073348657E-01 1.356954692264E+00 3.410160914586E-02 4.404069061376E-01 -1.506115387114E+00 1.647222686523E+00 2.467241410325E+00 8.827874404997E-01 -4.844889904214E+00 1.651191387595E+01
 1.293450858753E+00 -2.401200867057E-01 1.726802715266E-01 -6.931871505493E+00 -1.286735807467E+00 -6.285751958295E+00 1.178717053662E+00 7.634052221392E-01 -1.212670058446E+00 2.788839166900E-01 2.910322990101E-02 -1.168854964319E+00 -1.048019566769E-01 3.084376031658E-01 7.674929779548E-01 6.836116583584E-01 -2.244186597182E+00 1.831898955545E+00 -4.849218799613E+00 -9.351803578036E-01 2.183318539252E+00 1.522594714920E+00 -4.786579642549E-01 -8.623567643517E-01 -3.307238941457E+00 -8.747784224658E-01 6.491068227790E+00 -2.505429406325E+00 5.627855422528E-01 -8.871541128702E-01 -1.248994554817E+00 5.086091940681E-01 5.129385647905E-01 -2.317293646285E+00 -2.628593196866E+00 3.173597244761E-01 -8.397553034005E-01 1.085262150258E+00 -8.117566100300E-02 -9.171510900735E-01 4.019528034301E-01 -1.147147585120E+00 1.660760632470E+00 -1.539534562242E-01 -1.543216296022E+00 1.441562768059E+01
 8.885886320253E-01 -1.065479613383E-01 3.590411467158E-01 3.822127406793E-01 -1.584616656590E+00 4.365428643003E-01 4.101507726786E-02 2.005686951452E+00 -4.228484975358E-01 -1.719446199947E+00 -9.680908907055E-01 9.667763644824E-01 -5.596482860972E-03 -6.888053376528E-01 1.105894262574E+00 1.721318526156E+00 -1.590714904037E-01 1.371648872796E-01 -3.582785160288E+00 2.895892732906E-01 1.535566970577E-01 1.222259129870E+00 4.456178726178E-01 -1.433164786740E+00 1.205294440498E+00 -1.841907020273E+00 -1.141874926449E+00 -8.647094798398E-02 1.254332422565E-01 4.888440507520E-02 4.512041975681E-01 1.929626119536E-01 8.087616464240E-01 -1.350899604688E+00 -1.261979619464E+00 -9.614009834524E-01 -1.039394683372E+00 -2.232756933348E-01 -2.299725504469E-01 -5.976219568886E-02 1.856518288281E+00 -6.709638654428E-01 5.756026972742E-01 -1.071979984567E+00 2.487846907961E-01 2.284312052269E+00 5.559042758382E+00
 3.958607231741E-01 -6.782204486102E-04 2.628444284337E-01 -2.461036056467E+00 -2.980864235218E-01 4.888376437016E-01 -8.602653114515E-01 -1.677332400529E+00 7.245220639125E-01 -4.832901351965E-01 -5.772256274067E-01 -2.578270236096E-02 6.473589149301E-01 -1.187988635643E-01 -6.080703367439E-01 -3.692437595728E+00 3.938826889567E+00 1.249980779312E+00 4.679546560529E+00 1.320121354120E+00 9.153135097074E-01 -8.006966595492E-01 7.210979767960E-02 6.539682956129E-01 1.525177615053E+00 7.979051480967E-02 -2.641827853148E+00 8.192845090712E-01 1.350926238386E+00 2.682894118798E-01 9.404560920264E-01 1.338198390065E-01 -1.820460813372E+00 8.297029172604E-01 1.354631950740E+00 -3.554120207509E-01 -6.769596530686E-01 -1.201206427711E+00 8.944414570715E-01 1.221236498267E+00 -8.101668251628E-01 -5.103300313572E-01 -9.104975037036E-01 1.164408530830E+00 -4.144916804463E+00 -3.968628062297E-01 2.877239307778E+00 9.672812897938E+00
 -2.874845788491E+00 -2.228862027690E+00 2.433920524886E+00 -3.745655423525E+00 3.006680220824E+00 3.348324457536E+00 -4.795638486439E-01 1.502154066626E+00 -1.505481771972E+00 1.008331034089E+00 -3.860836674148E-01 -5.422795514883E-01 -1.604179830904E+00 7.773386977757E-01 -9.656780118192E-01 1.174142842340E+00 8.874175864916E-01 -3.315407490058E-01 -5.909549769122E-01 -1.124188178549E-02 2.315162283673E+00 -1.477751421003E+00 6.307687890687E-01 -9.713877776743E-01 -4.282301098066E+00 1.453687832892E-01 -2.526162951471E+00 -1.336909364231E-01 -3.398621153727E-01 3.744900255180E-01 1.864363794620E+00 -2.563828654236E+00 -3.061634915394E-01 -2.319323040996E-01 1.023834470520E+00 -1.775111299101E+00 -1.727024353934E-01 2.679947086779E-01 4.374459893832E-01 -8.034425376523E-01 -2.661692079748E+00 1.049934720099E+00 7.443108023923E-01 1.551072212390E+00 1.015792317548E+00 1.100993430479E+00 -9.322895177698E-01 -8.896349340454E-01 9.886750037764E+00
 -9.742779842607E-01 -2.183401524681E+00 2.063720054035E+00 3.666357445229E+00 -8.065851964805E-01 -5.815965633459E+00 -1.423759741584E+00 -1.117439336402E+00 1.496435832120E+00 -3.009347303599E-01 1.185888901647E+00 -1.431909953854E-01 9.937193339226E-02 -9.035879865360E-01 -4.110281149959E-01 -6.815864003262E-01 -6.385435307508E+00 -6.392042878017E-01 -7.098821108671E-02 -1.150684641919E+00 3.170640805635E+00 -6.709779151162E-03 -6.056720253783E-01 -8.193587110323E-02 2.957720177863E-01 2.164484147306E+00 2.554524316615E+00 2.442885433118E+00 -5.096307968992E-01 -2.441522534671E+00 -7.335490832184E-01 7.814978242543E-02 1.357968171539E+00 7.017679863384E-01 2.216935866834E+00 5.568827383812E-01 1.577691721382E+00 1.778695418582E+00 1.380172567459E+00 -2.264575976403E+00 -1.519153987518E+00 -1.363350413835E+00 -7.940360529355E-01 -4.276186567633E-01 1.690468153414E+00 6.204797122359E-02 3.499774975839E-01 -1.987243730860E+00 1.624173537871E+00 1.056444884411E+01
 1.723951383013E+00 2.457203206487E-01 -5.955115316072E-01 1.658384294145E+00 -3.513371552810E+00 6.029950090212E-01 2.502491714227E+00 2.185270218825E+00 -6.656439933337E-01 -1.040149763634E+00 -1.555247301773E+00 2.234645456553E-01 2.364853992870E-01 -7.991132066616E-02 -9.365501006515E-01 -1.016971813263E+00 1.764349918634E+00 -6.134168418883E-01 -6.355101339750E-02 -1.332954015643E-01 -1.476982443425E+00 -6.333514453013E-01 -9.794368295032E-01 -6.218489115923E-01 -2.859883374929E+00 1.069881710751E-01 -3.673787901381E-01 -2.234032295267E+00 4.339481439422E-01 1.627349612906E+00 7.376701418031E-01 2.019381994464E+00 -4.342109321562E-01 -8.112660222154E-01 1.026571996114E+00 -8.195823763008E+00 -1.514924874878E-02 -5.060082369216E+00 2.291645366478E-01 3.764238189836E+00 6.920147322054E-01 8.218792698055E-01 2.747746477602E-01 2.692506134570E-01 2.014430509160E-01 1.591580434043E+00 4.440118916597E-01 -1.393198482170E+00 7.940834600732E-01 2.914149030023E+00 1.476071857735E+01
 -1.561425804319E+00 1.009055831278E+00 -1.031683132123E+00 8.528994142879E-01 5.477020828836E-01 1.731284224751E+00 -7.099260351437E-01 3.653645294709E+00 -2.567107435601E+00 -4.441875371495E-01 4.800137127582E-03 1.266140285981E-01 -1.451127246184E+00 3.630935782832E-01 -9.357433954545E-01 3.254736740604E-01 8.871218639376E-01 -1.368382935799E-01 7.430737611804E-01 -5.333968909506E-02 -1.326702525125E-02 -2.666620542165E+00 3.108680997068E+00 -1.015724997482E+00 -1.811271132675E+00 2.327833006144E+00 -1.186073183721E+00 2.221220972527E-01 1.291389300301E-01 1.057304885308E+00 1.262490244267E-02 -7.297595172380E-01 4.919569469911E-01 -1.152659668493E+00 -7.182127196226E+00 4.067038258896E+00 -5.593035027841E-01 -7.504259871959E-01 2.270889830907E-01 3.217714548981E-02 -1.671545277591E+00 7.259913914040E-01 1.111587772284E+00 -4.293095612489E-01 -9.751278137266E-01 1.034594242786E+00 1.934634540083E-01 3.491507332677E-01 2.270585531616E-01 -3.480052243584E+00 -3.527662651172E+00 1.443587549488E+01
 -1.223123787205E+00 5.458451013925E-01 4.641735570560E-01 2.703209104522E+00 4.865139226178E-01 -3.080895187183E+00 1.318646268599E+00 -3.448129744784E+00 2.744289468962E+00 -1.832121557756E+00 1.449450066117E+00 -4.656106663602E-01 7.506744172397E-02 7.674847477130E-02 4.196022257544E-01 -5.523752988755E-01 -4.400122816563E+00 4.557986277214E+00 8.137984336661E-01 5.054700384825E-01 2.621427836338E+00 -1.783620648745E+00 2.758184991144E+00 -2.232282240482E+00 2.605162524357E+00 -1.025829374112E+01 -7.990032357270E-01 1.223859523508E+00 1.750385783016E-02 3.433950328520E-01 1.973819466078E-01 -9.248578262148E-02 -1.515674092015E+00 -5.339888639927E+00 -5.957634673964E+00 -2.434016969179E+00 -2.929293669525E+00 -2.245364420890E+00 -1.304105863125E+00 6.490340936748E+00 -1.521861635659E+00 4.144870699839E-01 -2.954507727222E+00 3.399059223338E+00 -1.968990061209E+00 1.514755464239E+00 7.755043211512E-02 -2.414904810883E+00 -2.803359278781E+00 -2.677297733235E+00 -3.915047590059E-01 -1.290555007211E+00 2.568084041952E+01
 7.974275471122E-01 -6.783350136794E-02 -8.104206575085E-01 -1.155558375340E+00 2.491125789287E-01 -8.757792949042E-01 -1.438585024821E+00 6.031218592222E+00 -1.243908253065E+00 -1.235161163635E+00 4.744775986930E-01 4.420023766286E-01 1.242988762367E+00 -2.521789250350E-02 1.196657823566E+00 -1.259288329977E+00 -9.455433783609E-02 -8.257006053536E-02 -5.099527973629E-01 -1.350938575119E+00 4.516186661084E-02 3.277198010723E-01 5.085626942199E-01 -8.668728394178E-01 1.298306603466E+00 -4.481898332116E+00 -2.253030177800E-01 -1.633675097696E+00 -1.463800263949E+00 1.848962678167E+00 1.430701764693E+00 2.279522034788E+00 -1.856488680535E-01 -2.833905171734E-01 -1.542185519464E+00 9.380460215896E-01 1.107744460377E+00 -6.052195798434E-01 -1.846170957803E+00 -2.764756855530E-02 -3.322907634567E-01 -1.059113918900E+00 -9.010709267103E-01 -1.284026882923E+00 9.570978556725E-01 -3.432199699679E-01 1.091826497327E+00 2.743244455177E-01 -2.824224973650E+00 -3.229820210310E+00 -5.145068025631E+00 3.519310848750E+00 3.087216564328E+00 8.648709691601E+00