#BIOSYM hessian 1
@Type: Hessian Update
@Units
 distance: 	A
 energy: 	Kcal/Mol
#header
@natom 18

#label
L1      L2      L3      L4      L5      L6      L7      L8      L9      L10     L11     L12     L13     L14     L15     L16     L17     L18

#element
Li Li Li Li Li Li Li Li Li Li Li Li Li Li Li Li Li Li

#matrix
54
 1.487396079869E+02
 -9.224853588861E-01 1.569407225313E+02
 1.983567627229E+01 2.090910911666E+02 1.279089910087E+03
 -5.667108106511E+00 4.504150981468E+00 2.660881179534E+01 1.474699867612E+01
 -2.650360359174E+00 1.354688847997E+00 3.219499416862E+00 -1.076197437303E+00 2.449872094169E+01
 1.213324559707E+00 -6.012278204361E+00 -2.595909477388E+01 -1.345373666688E+01 1.292537540907E+01 2.851042264038E+01
 9.751172341988E-02 -6.993894149504E-01 -2.912147982701E+00 -2.231362640979E+00 1.507536229988E+00 1.504751756900E-01 1.092080084764E+01
 7.739724567985E-02 2.941715731851E+00 8.904489587620E+00 3.417978875765E+00 -9.301667268509E-01 -1.652831603101E+00 -7.044882064849E-01 4.174389574021E+00
 -2.584447524459E-01 -5.014373794369E+00 -1.746048488881E+01 -2.511229175062E+00 -3.559302156116E-01 2.360723457388E+00 1.027936024515E+00 -3.285154146669E+00 1.403890717257E+01
 -7.388089453297E+00 -3.591356905126E+00 -2.723911775058E+01 -3.648474306524E+00 -6.729638230666E-01 3.365669312291E+00 -1.248258228548E+00 -2.866147778571E+00 2.305625613582E+00 1.440598619734E+01
 3.333646403833E+00 7.694693718373E-01 3.581471458899E+00 7.521923631412E-01 6.781914085845E-02 -7.855955227031E-01 -1.215354666755E+00 -5.493694657545E-01 -4.347824239767E-01 -1.237231471358E-01 2.266693903408E+01
 -2.362973275789E+00 -5.682719809255E+00 -2.505890716746E+01 -3.366274147894E+00 -7.372597799899E-01 3.070914634148E+00 3.347308391988E-01 -1.581009846653E+00 2.217614204941E+00 1.298769502311E+01 1.114305003212E+01 2.683854949986E+01
 -5.469906358898E+01 -5.922112022442E+01 -6.646026674830E+01 -6.100898505820E+00 -1.910039103591E+00 5.328173463848E+00 4.049579048281E-01 -3.127866024299E+00 3.985451371848E+00 5.216610450326E+00 7.756838149465E-01 5.191102937548E+00 6.869724624415E+01
 -5.181608211913E+01 -5.678657627417E+01 -6.206431823337E+01 -5.347858856180E+00 -1.752476819335E+00 4.624282288817E+00 3.547514370067E-01 -2.818364709533E+00 3.505536456587E+00 7.642287621922E+00 -1.118050845624E+01 5.749843891167E+00 4.978457671984E+01 7.136879956892E+01
 -1.602644356538E+01 -2.060768069457E+01 -3.476705853986E+01 -3.458373722268E+00 -9.493745974019E-01 3.040178410760E+00 2.818540043988E-01 -1.798939588565E+00 2.255523606543E+00 2.957788203924E+00 2.858497745151E-01 3.123996469640E+00 3.336304861948E+01 2.281026354000E+01 2.804124790023E+01
 -5.314531584326E+01 5.868501023442E+01 6.411839738997E+01 5.116751190233E+00 -1.149207476719E+00 -5.067767242194E+00 -5.134960915336E-01 2.952525846559E+00 -3.741274539100E+00 -5.356972166148E+00 1.756183414271E+00 -4.798697768462E+00 -1.062575214716E+01 -6.181324035891E+00 -4.338531737298E+00 6.577636970605E+01
 5.041464272333E+01 -5.854687067076E+01 -6.779104560540E+01 -9.317294254137E+00 -1.180625087582E+01 6.902635145738E+00 5.416335794639E-01 -3.276016691377E+00 4.115350219758E+00 5.858101752715E+00 -1.849127502214E+00 5.262096618992E+00 8.168598971002E+00 7.481604711921E+00 4.968831678630E+00 -5.298405195493E+01 7.125363577212E+01
 1.418846697616E+01 -1.867055815245E+01 -2.912331534235E+01 -2.546223934434E+00 4.994918524990E-01 2.707353556558E+00 2.012147221333E-01 -1.481458852332E+00 1.823724333859E+00 2.604246549332E+00 -7.449161975701E-01 2.355060399081E+00 3.607712369719E+00 3.286201382342E+00 2.134735246186E+00 -2.874482673642E+01 2.455310765779E+01 2.369533501331E+01
 6.381252993180E-01 -1.601344103597E+00 2.132975929420E+00 -1.361202307347E-03 -6.674222464112E-02 -3.961676388944E-02 -2.347315879379E-03 -2.721955821589E-02 2.665362798866E-02 8.446114413113E-03 -3.916004399188E-02 -2.262288909575E-02 -1.854267697273E-01 -1.903887244496E-01 -9.578549558041E-02 1.922955655175E-01 -2.117843205250E-01 -8.552244613765E-02 3.336891170540E+00
 -8.116438383646E-01 1.562968624908E+01 5.822857377887E+01 8.130765925697E+00 2.456862162325E+00 -6.512153184140E+00 -6.328811914166E-01 4.328717767307E+00 -5.418528060969E+00 -7.603965426454E+00 2.283964234686E+00 -6.214653335429E+00 -9.603277583872E+00 -7.832790332818E+00 -5.376880932372E+00 8.942356983581E+00 -9.659297719316E+00 -4.121956404503E+00 -5.780497981538E+00 1.377532608862E+02
 6.688904215279E-01 1.905518026036E+00 2.365174804654E+01 2.784662468057E+00 8.383641250953E-01 -2.332085197870E+00 -1.888469291410E-01 1.478453263498E+00 -1.762097017447E+00 -2.564206178300E+00 7.910299070924E-01 -2.226625080072E+00 -3.529138452070E+00 -2.893481355300E+00 -1.755865677476E+00 3.294982841622E+00 -3.520171100389E+00 -1.332849918063E+00 9.531685483051E-01 -5.750182271268E+00 9.337553407234E+01
 5.361034907912E-02 -6.043757868852E-01 3.503127745229E-02 -6.380638115306E-01 -1.427663400800E-01 5.550159995694E-01 2.124484339025E-02 -3.334485652374E-01 3.349551116962E-01 5.641402314957E-01 -1.337094027238E-01 5.604976243751E-01 1.138524793469E+00 7.648190712295E-01 4.109789475576E-01 -1.003034229388E+00 1.105414082278E+00 5.822177044224E-01 3.239858638861E-02 -2.186210832278E+00 -2.727008479950E-01 4.896399185146E+00
 -9.553003318571E-01 -7.964184694471E+00 -7.318948563606E+01 -1.261252481161E+00 -2.388417669385E-01 7.428474517655E-01 8.582585637995E-02 -7.510376098143E-01 5.302080290218E-01 1.042721881558E+00 -1.130733462909E-01 5.381706172469E-01 2.074095755242E+00 2.282553570675E+00 1.028624811419E+00 -2.012756765656E+00 2.430680530254E+00 5.757911337158E-01 -1.242907859974E+00 -4.125021469807E+00 -7.814597760898E+00 9.462315416853E+00 1.629962978471E+02
 -8.274013577489E-01 -2.048997319968E+00 -8.286749621116E+01 2.742908373139E+00 1.967606125521E-01 -3.161056701476E+00 -2.585497756122E-01 9.638238740487E-01 -2.008090086813E+00 -2.768452654164E+00 3.754801549603E-01 -3.082800593962E+00 -4.682910423984E+00 -4.149366644733E+00 -3.873534423279E+00 4.133899947686E+00 -4.969865117621E+00 -3.417398828335E+00 -2.011623711348E+00 1.294629889205E+01 -3.613594823455E+00 4.170587095943E+01 2.813669001461E+02 6.828457927519E+02
 1.371082411174E-01 -1.874017549218E+00 -4.808060723003E+00 -9.121339875628E-01 -1.370672446959E-01 8.386975383871E-01 5.984419155440E-02 -4.328522130945E-01 5.173980045822E-01 8.216625630837E-01 -1.525137269925E-01 7.599167004238E-01 1.519467797413E+00 1.379272254637E+00 8.733385243127E-01 -1.460587305755E+00 1.630243701650E+00 7.130635184488E-01 -4.321882817473E-01 -2.238671829179E+00 -6.455197684097E-01 1.905434591881E-01 7.422695673316E-01 2.015213816797E-01 2.195647504612E+00
 -1.096789449307E-02 -4.800453495140E-01 -8.200651641525E-01 -1.989754748802E-01 -2.051047540951E-02 2.027526643039E-01 1.458601056425E-02 -8.657177333264E-02 1.120950754981E-01 1.832791974509E-01 -2.663255551560E-02 1.910379074750E-01 3.584446375399E-01 3.268232860192E-01 2.094104244669E-01 -3.826661249852E-01 4.149132758863E-01 1.746911949633E-01 1.977156921418E-01 -5.500998837158E-01 -3.234525368692E-01 1.245665423850E-02 -7.258904709128E-02 -3.459892120026E-01 -4.317388139834E-01 2.618804090013E-01
 -4.030429908445E-01 -4.502446725495E-01 -2.053765542966E+00 -1.676651503236E-01 -9.693119474165E-03 1.837420134467E-01 1.390252569194E-02 -6.775610786277E-02 1.009252012518E-01 1.509002806974E-01 -2.301944419260E-02 1.506686701360E-01 3.127497930945E-01 2.717368177242E-01 1.709221249558E-01 -2.910562890275E-01 3.197266585889E-01 1.303071320718E-01 2.474654464718E-01 -4.958706925692E-01 -4.934210380847E-02 3.197848550704E-03 1.906936329233E-01 7.185354881060E-02 2.490011077473E-01 7.217292330583E-03 6.240639524816E-01
 2.038403880614E-01 2.900739548101E+00 6.501531050227E+00 1.291397079081E+00 -1.070104042528E-01 -9.379930856764E-01 1.480384367920E-01 3.651437743980E-01 -9.407249618845E-01 -1.102971009918E+00 1.680102286017E-01 -1.173465109113E+00 -2.158581291225E+00 -1.854686268812E+00 -1.145340120497E+00 1.990210789722E+00 -2.124613676291E+00 -9.340490380677E-01 -7.901897923877E-01 1.900519457635E+00 1.329343879562E+00 -1.400943350444E-02 -4.781943360438E-01 3.611173173012E-01 -1.929921258964E-01 -3.551056465833E-02 -3.082963258608E-02 6.750986506919E+00
 3.366264291446E-01 -3.458431172861E+00 7.156657415121E+00 -2.688867877495E+00 3.959499461124E-01 1.953284955117E+00 1.399288904633E-01 -1.033362839551E+00 1.438983572720E+00 2.056027355317E+00 -2.984403654792E-01 2.146736521638E+00 4.196820208876E+00 3.742380219049E+00 2.447030850162E+00 -3.975483605057E+00 4.379428343543E+00 2.010357394100E+00 -6.778274045037E-01 -7.521091136182E+00 -1.804938844837E+00 1.628122414749E-01 2.183763292913E+00 1.521906670404E+00 4.840386538148E-01 4.750431418990E-02 2.296182303207E-02 -5.889409439500E+00 1.401718837277E+01
 3.916382219564E+00 1.288307442966E+01 1.848779222986E+02 4.293282734136E+00 1.641239342857E+00 -8.054502380133E-01 -2.360858726113E-02 2.370972069413E+00 -3.132104955732E+00 -4.564122525118E+00 1.890766733455E+00 -2.330167373153E+00 -2.854943772328E+00 -2.437011767258E+00 -1.258170147678E+00 2.593679257681E+00 -2.950832658399E+00 -9.067678251378E-01 1.844254915760E+00 9.796501771000E-01 -1.276260700084E+00 -2.638620436724E+00 9.287037674062E+00 2.679805314408E+01 -1.669743689915E+00 -2.022967725668E-02 -4.363644330021E-01 -7.164987888765E+00 3.210287947347E+01 3.202237654806E+02
 -1.050100009831E-01 -2.755102609980E+00 -7.227894279255E+00 -1.195651609438E+00 -1.703641819227E-01 1.213930700976E+00 3.293401010482E-01 -4.270245293678E-01 9.496002561300E-01 1.313512812981E+00 3.160159437445E-02 8.654015807326E-01 2.145276009078E+00 1.854877289011E+00 1.165216534223E+00 -1.998601656027E+00 2.154266663217E+00 9.383671144467E-01 -7.269086762584E-01 -1.926298388069E+00 -1.244066167179E+00 6.724101125479E-02 2.561826495919E-01 -9.166165606937E-01 2.247366175928E-01 6.090780825792E-02 6.062367472702E-02 -9.274780235531E-01 7.087871021872E-01 -8.985268358410E-01 6.192194467180E+00
 -8.649828902101E-02 -2.797131052335E+00 1.021369870428E+01 -2.047755922805E+00 -1.967445321466E-01 2.138081055061E+00 1.616644349968E-01 -9.830561941282E-01 1.326184707792E+00 2.400684811226E+00 2.456479221138E-01 1.694444484772E+00 3.944309160535E+00 3.587519770795E+00 2.264683359794E+00 -3.617303580050E+00 4.005030162738E+00 1.920950201771E+00 8.751142318321E-01 -7.189874340436E+00 -1.657483917245E+00 1.169268273789E-01 2.102438150107E+00 1.656279113176E+00 4.370705463813E-01 1.055198734117E-01 8.670248551380E-02 -5.178891841776E-01 1.215624364305E-01 -9.333695082515E+00 4.890547830732E+00 1.326142071843E+01
 1.375576572187E+00 1.369045604606E+01 1.930720625206E+02 5.021835876542E+00 2.418814443779E+00 -2.187908038806E+00 -5.917920222196E-01 2.238104201915E+00 -2.955829832845E+00 -3.592302775944E+00 7.712054709856E-01 -1.865151854783E-01 -2.422400934801E+00 -1.628620660964E+00 -1.346012931553E+00 2.777576281039E+00 -3.094505973968E+00 -4.554147269881E-01 -6.724314262522E-01 3.586663072762E-01 -1.422542513250E+00 -2.980192641514E+00 9.916265325278E+00 2.826321190835E+01 -1.593688902586E+00 -1.828126714869E-01 -1.475572540349E-01 1.167974810627E+00 -9.816964580450E+00 -4.125537080673E+01 2.327332473794E+00 3.297481636026E+01 3.352881217470E+02
 1.596972249102E-01 1.145958384086E+00 2.091101430953E+00 6.746584973902E-01 1.199327674830E-01 -5.916698272157E-01 -4.040817763621E-02 3.344807395335E-01 -3.777140627043E-01 -6.135089303118E-01 1.164676179661E-01 -5.558631679072E-01 -1.113145237408E+00 -1.027640801144E+00 -6.362864312493E-01 1.041257723674E+00 -1.168624325687E+00 -5.320427004758E-01 -4.301497428890E-01 1.404277334727E+00 5.944350308717E-01 -1.502962839400E-01 -3.961621590454E-01 1.669198780315E-01 -1.717445913594E-01 -2.954376288983E-02 -2.022242473239E-02 1.165466125935E-01 -3.521799960197E-01 1.234856843348E+00 -1.590272473423E-01 -3.479965770268E-01 1.387205481611E+00 1.953038005116E+00
 -1.119501655962E-02 -1.987990191874E-02 1.535020615682E-02 3.958501481505E-02 1.377317714091E-02 -1.342640299119E-02 -1.822865132894E-03 2.653151399057E-02 -2.184540054953E-02 -2.580328475530E-02 1.351898900158E-02 -4.641863781236E-03 2.353043024289E-03 -3.036954778723E-03 -1.719182712237E-02 4.323905040468E-02 -4.777749582893E-02 -1.546798862852E-02 -1.778353798910E-01 -1.776138180631E-02 -6.391381163833E-02 -2.493205024120E-02 -6.563752828001E-02 -4.931635604558E-02 -1.827313548993E-02 -7.961902632600E-04 -6.380708485272E-04 -1.822152619011E-02 1.039262204069E-02 3.833905904070E-01 -1.821454843927E-02 -5.820277122288E-02 5.574211725372E-01 5.020842927136E-01 2.386901334107E-01
 3.470977641274E-01 -8.481984811517E-01 -2.682044346081E+00 -3.901375569141E-01 -5.482596733531E-02 3.701047876489E-01 2.690942370916E-02 -1.790085195940E-01 2.314651865009E-01 3.650079107748E-01 -5.482772620882E-02 3.605623812040E-01 6.925558159056E-01 6.277409904884E-01 3.856418884024E-01 -6.640974361490E-01 7.291466990585E-01 3.197142604250E-01 -2.293246480839E-01 -1.037456461142E+00 -3.124373872968E-01 6.861689980749E-02 2.208740824230E-01 -7.502946427212E-02 8.623584337592E-02 1.625992768918E-02 1.486399515942E-02 -1.059677908742E-01 2.153537088643E-01 -5.722374989828E-01 9.047518774119E-02 1.288293892437E-01 -8.564938242238E-01 -2.824659635313E-01 1.312905599367E-02 5.787734498341E-01
 1.448280844212E-01 1.030495107675E+00 7.888622058572E+00 9.544637462596E-01 2.789135563819E-01 -6.525776367221E-01 -6.157753160387E-02 5.444969673356E-01 -5.592481019421E-01 -8.637410639420E-01 2.420011089424E-01 -6.309394295950E-01 -1.151065762430E+00 -1.010055216076E+00 -6.768001095303E-01 1.064080159142E+00 -1.225704033358E+00 -5.599137235140E-01 -3.686516325106E-01 6.691536777453E+00 -7.096790698595E-01 -1.865948637568E+00 -3.654217285339E+00 -1.529323258069E+01 -3.776846169196E-01 -8.588663865770E-02 1.205642756109E-02 2.674746825938E-01 -8.730123734906E-01 -5.522603598180E-01 -1.994884977599E-01 -7.651962863489E-01 -4.629877103007E-01 2.309511580306E-01 3.669332078690E-02 -1.225531718351E-01 1.666410439867E+00
 3.419351414802E-01 3.603810774375E-02 4.807799633186E+01 -6.381918405402E+00 -1.689942001708E+00 6.335052270474E+00 4.750021320476E-01 -3.024900966433E+00 4.507841746536E+00 6.106406308932E+00 -1.796824442229E+00 6.163169146857E+00 9.025273159592E+00 6.964349130382E+00 5.348605872955E+00 -8.496855000864E+00 8.440612415899E+00 4.295561915732E+00 5.565807505863E+00 -1.253467850580E+02 2.571131873313E+01 -2.724692849286E+00 -1.107552268241E+02 -2.047991040079E+02 1.270056354521E+00 4.066283544449E-01 2.275511055509E-01 -1.770931044351E+00 1.820812316739E+00 -2.223522420474E+01 2.238163895952E+00 1.578270131124E+00 -2.321392018312E+01 -8.433709965012E-01 5.899255403479E-03 6.188949976360E-01 -2.346771690166E+00 2.256801266572E+02
 3.090808070853E+00 1.047451749928E+01 2.016928417139E+02 1.677699483172E+00 1.430712577600E+00 1.640276598736E+00 -1.936074964702E-01 1.846509011497E+00 -8.387581183553E-01 -1.373592737554E+00 8.466429336264E-01 1.642823418811E+00 2.766264082587E+00 1.889520617075E+00 2.005035553257E+00 -2.637166941420E+00 1.560251735865E+00 1.923251104921E+00 1.853648529842E+00 1.075012137818E+01 -5.910947083182E+00 -1.899606162658E+01 -1.866195200606E+02 -4.035607769037E+02 -1.778920457548E+00 1.317040259723E-02 -4.301418702849E-01 1.767276782150E+00 -8.502609680642E+00 -5.208648752783E+01 -8.079018271478E-01 -8.443192960834E+00 -5.514839598005E+01 1.044444121731E+00 5.314482466460E-02 -5.705015577901E-01 1.445547226609E+01 1.595152086223E+02 3.697883671551E+02
 -2.460493917573E-01 1.412565231230E+00 1.327933641457E+01 -2.665845805971E+00 6.007268151912E+00 6.881874044448E+00 -4.259152000555E+00 1.137118421284E+00 -4.746975134850E+00 -1.905960132734E-01 1.429055044627E-02 -3.047495551226E-01 -2.236637755359E-01 -1.722322914913E-01 -1.186309684945E-01 3.602976980082E-01 -3.632021548859E-01 5.054868890215E-02 1.930725546463E-02 3.457019339249E-01 4.086462921004E-02 6.092962056921E-02 6.164398567923E-01 1.244593336656E+00 1.534559040918E-02 2.302941546519E-03 -2.667536476022E-02 -1.669677274457E+00 2.230659362582E+00 8.448503330858E+00 -8.158998903681E-02 -1.356806805107E-01 -1.325161743377E+00 -2.469512862498E-02 -1.245828744204E-02 7.411122730097E-05 -1.218763575312E-01 -1.346179969737E+00 -2.112415965578E+00 1.475997664910E+01
 -5.817447763333E-01 -1.956791587495E+00 -1.792105987720E+01 6.104743741218E+00 -1.298912076370E+01 -1.565726032673E+01 1.091240222834E+00 -2.553554333860E-01 1.034695998342E+00 -4.376572762013E-02 -1.939166076328E-02 -1.237641512421E-01 -1.949495468796E-01 -1.309985306105E-01 -1.530268517071E-01 8.043879238320E-02 -1.082012499177E-01 -3.492598214064E-01 -9.691739104563E-02 6.761571221936E-01 3.501882408395E-01 1.948791070020E-01 -1.949012814018E+00 -3.490552556850E+00 3.803287268852E-03 -5.036277798996E-02 1.813794701047E-02 2.711553995255E+00 -7.741901855149E+00 -4.068435338043E+01 -1.108219101936E-01 7.652116655517E-01 5.919946946407E+00 -1.583918000516E-02 -3.451245320411E-02 -2.635030078826E-02 2.306705265450E-01 2.843718693730E+00 7.503980220219E+00 -1.432464554360E+01 2.983578472983E+01
 -3.941146360566E+00 -5.842827125496E+00 -1.481801453627E+02 7.213265344493E+00 -1.688112191477E+01 -2.657461240683E+01 -5.157969050225E+00 7.820898710140E-01 -6.346125824813E+00 5.785344726975E-01 -1.000642466124E+00 -1.356210482358E+00 -3.264543149885E+00 -2.636746348436E+00 -2.285842013451E+00 3.297914629738E+00 -3.251098118830E+00 -2.102414693806E+00 -1.371410737243E+00 7.671524464075E+00 3.149584794099E+00 2.133541623826E+00 -9.823406373309E+00 -2.238163939075E+01 7.630735231139E-01 -2.138705245022E-01 2.114000950640E-01 1.214782462768E+01 -3.881696042670E+01 -3.148272212031E+02 -5.607851780363E-01 6.905141153238E+00 4.342169048079E+01 -6.189850182318E-01 -3.742222910572E-01 1.408500937074E-01 1.250888491795E+00 1.425949891518E+01 5.037665401158E+01 -1.301167118288E+01 5.774857814622E+01 3.502762436474E+02
 -6.968717244845E-01 -1.067215472797E+00 -9.702368070687E+00 -3.428138818454E-02 3.740809721004E-02 2.006245467290E-01 -3.646847125892E+00 -8.834887559441E-01 3.885665377460E+00 -2.523892550190E+00 -5.401372643269E+00 -6.275720417125E+00 2.523043901684E-01 1.804444912128E-01 -8.824089190965E-02 -7.197977486949E-02 8.069881180542E-02 2.738599676742E-02 2.812505673260E-02 -3.257709696716E-01 3.324210940808E-02 -1.055184581248E-01 -5.189360525925E-01 -9.004161869934E-01 -3.532835145063E-02 2.662137339860E-03 6.440046365988E-03 -9.790808879505E-02 3.880605716250E-03 7.059222003214E-01 -1.477912727346E+00 -1.641739842910E+00 -3.129415133844E+00 5.764710710824E-02 8.389794398794E-03 2.264180164326E-03 1.294130894934E-01 1.065070410271E+00 1.473522828501E+00 -5.287021796003E-01 -1.253496954765E-01 -1.095954289838E+00 1.372592051414E+01
 2.076511992684E-01 -1.607613557157E+00 -1.755434929892E+01 2.241441786583E-01 -4.192512447795E-02 -3.476682448509E-01 -9.319651564753E-01 -9.605804449104E-02 7.133515996967E-01 -5.758214778667E+00 -1.135471993544E+01 -1.422177248867E+01 -4.891475810476E-01 -4.617343605364E-01 -5.489519968866E-01 4.589865109405E-01 -5.408929328762E-01 -3.260510817218E-01 4.965212423076E-02 1.241582555414E+00 5.911357402220E-01 1.799473290658E-01 -2.162545533703E+00 -3.636609383898E+00 -3.586340290381E-02 -2.256004296670E-02 -2.908739786887E-02 7.332679463251E-02 7.263452550207E-01 6.384323019898E+00 -1.996391524142E+00 -7.488267671153E+00 -3.997366425581E+01 8.393141301761E-03 -6.603187026042E-02 9.708439781808E-03 3.008070304341E-01 2.737286224043E+00 8.224174182741E+00 2.049819055205E-01 -9.610416693823E-01 -5.977320758005E+00 1.276647560275E+01 2.790963429201E+01
 -1.893629582539E-01 -7.405155427053E+00 -1.615543792546E+02 -1.190640422648E+00 -1.620524647299E+00 -1.325016877613E+00 4.318647656616E+00 5.150465006351E-01 -4.968245860199E+00 -6.755786074105E+00 -1.441542550433E+01 -2.484544027366E+01 -3.424241753724E+00 -3.166632809168E+00 -2.134675024838E+00 2.538042706313E+00 -2.614478633818E+00 -2.174040436298E+00 2.490525818362E-01 7.681292823898E+00 3.191752684675E+00 2.473712540987E+00 -1.047527524551E+01 -2.418344257594E+01 7.648821936388E-01 -2.246585986373E-02 -3.374354934571E-02 1.429415338435E-01 7.463878584372E+00 4.420342469888E+01 -6.783081898585E+00 -3.885452631860E+01 -3.302498400752E+02 -7.982697508739E-01 -5.587192470065E-01 4.515653796480E-01 1.172217255591E+00 1.598493513859E+01 5.385853282532E+01 1.750575741467E+00 -5.807181233311E+00 -4.213795590280E+01 8.036760466790E+00 5.577871269159E+01 3.617312011878E+02
 4.335515751516E-01 1.059209362832E+00 -2.514041414219E+00 8.290580955909E-01 1.088291485539E-01 -9.431838957768E-01 -3.893536222701E-02 3.537253247364E-01 -4.821831284727E-01 -7.263133530704E-01 1.423821034615E-01 -7.759012089789E-01 -6.034243652126E+00 3.611991471789E+00 -4.849917092191E+00 -1.273412050549E+00 -3.812378908721E+00 1.343281419612E+00 -8.396015174423E-02 2.939382234640E+00 6.170218233312E-01 -3.320419052394E+00 -6.084173854071E+00 -2.501306369202E+01 -1.643803780868E-01 -3.040902440446E-02 -2.191223356698E-02 8.980128773112E-02 5.460203801722E-03 4.459403817836E+00 -1.776314783742E-01 -6.258920371387E-03 4.390617077228E+00 1.225377267345E-01 1.612346015777E-02 -7.075236052277E-02 9.336991131323E-01 -2.137790011549E+00 5.499303340379E+00 7.790146315768E-02 -3.979101214854E-01 -3.462970268226E+00 -4.292452730346E-02 -3.995597017560E-01 -3.553043644960E+00 9.267490453212E+00
 -8.062227397062E-01 -4.794110913319E+00 -4.054061857722E+01 -2.588109809924E+00 -7.439316809521E-01 1.475163793773E+00 2.216620330351E-01 -1.488960122822E+00 1.633570829077E+00 2.421634242564E+00 -6.234076727561E-01 1.424528384432E+00 7.271351115662E+00 -4.301868681374E+00 5.930705272430E+00 -4.502828579301E+00 7.246276282283E-02 3.111127866981E+00 -2.067851336150E-01 -1.923033076098E+00 -7.382844609670E-01 -4.037494226331E+00 -4.452513721545E+01 -9.010645507007E+01 7.654374987963E-01 1.923856885790E-01 1.150916524177E-01 -1.034163877877E+00 3.135110232043E+00 8.346286611882E+00 9.084450578166E-01 3.056052828049E+00 9.077796763510E+00 -6.209896222571E-01 -9.108852514847E-03 3.173607242207E-01 -1.265955546687E+00 1.358056163133E+01 1.219439514288E+01 3.165081542076E-01 -1.506326528510E+00 -1.037216375602E+01 -2.439303556921E-01 -1.762791939204E+00 -1.102427269772E+01 2.299184860265E+00 4.429511901295E+01
 -1.675502863161E+00 -2.775150655016E+00 -9.428429622878E+01 -1.338963296267E+00 -9.346167247193E-01 -1.260231268429E+00 2.023695379419E-01 -1.312777861308E+00 8.116120824512E-01 1.228523106659E+00 -5.368334949354E-01 -1.192926236692E+00 -6.443607566374E+00 3.377126736633E+00 -4.676316328408E+00 4.490741282930E+00 1.057971287205E+00 -2.132920884732E+00 -8.193989644985E-01 4.740650295762E+00 1.722124456588E+00 -2.323669400661E+01 -8.826770643915E+01 -2.667877416422E+02 8.417485562684E-01 1.974125488456E-01 1.503631668695E-01 -1.066141340978E+00 5.056015319214E+00 2.778743157927E+01 6.527095470715E-01 4.984002041903E+00 2.908198793063E+01 -7.237857142482E-01 6.404837353401E-03 3.064023947865E-01 2.726011821450E+00 8.353759049708E+00 3.624289654639E+01 1.119772608620E+00 -3.899281719524E+00 -2.697260552660E+01 -7.715920802278E-01 -4.313886958058E+00 -2.867712012925E+01 2.232574746911E+01 6.963724362706E+01 2.351702826337E+02
 7.100999052507E-02 -1.530348468037E-01 -1.129016571316E+00 -1.661181474480E-03 -3.563594974875E-02 1.240355995202E-02 -6.560844748533E-03 -5.399606988193E-03 3.198996266829E-02 5.532628507584E-02 2.194530807970E-02 7.138944786587E-02 6.424906481446E-03 -5.034384880104E-03 8.068026459064E-03 -7.640606266204E-02 5.466198644172E-02 1.550124192980E-02 1.102049293773E-02 -4.733507704976E-02 1.676964168295E-03 -1.883560529398E-02 -4.188798639490E-02 -1.225646029593E-01 -8.839131531678E-03 -1.309598029709E-03 -2.637932314421E-04 -3.667633065368E+00 4.201815370274E+00 -2.533333417149E+00 -3.360364509176E+00 -3.855782448083E+00 2.594443739055E+00 -1.374025537600E-03 7.174095524186E-03 5.117806538645E-03 1.900079460396E-02 1.332586734021E-01 2.012614882836E-01 -4.677221535647E+00 5.750442209141E+00 9.230600410267E-01 -4.592175251517E+00 -5.731527569018E+00 -1.407881055849E+00 -4.998472472122E-03 -3.077542225908E-02 -1.229763500935E-01 1.627391560832E+01
 6.468627265595E-01 1.407459349107E+01 4.677295604191E+01 7.440325349736E+00 1.399704392714E+00 -6.812086759482E+00 -5.255256714332E-01 3.459187351216E+00 -4.810475497099E+00 -6.903376620145E+00 1.438401135421E+00 -6.404905676138E+00 -1.199277647370E+01 -1.060230671978E+01 -6.774749291054E+00 1.128985278681E+01 -1.240235423690E+01 -5.514528714691E+00 -4.294518501994E-02 1.586170363417E+01 5.287024488859E+00 -1.276374465740E+00 -2.405981070440E+00 5.042671558883E+00 -1.730768314374E+00 -3.714718968175E-01 -2.891995787307E-01 6.020809416034E+00 -8.441203725497E+00 1.448690178178E+01 -5.900493592538E+00 -7.799392564845E+00 1.386578641627E+01 1.307928365380E+00 7.903686398240E-02 -7.300850136062E-01 1.878605363088E+00 -1.253873117414E+01 3.277918543954E+00 6.080725058435E+00 -7.156611809831E+00 -5.145159475185E+00 -5.790541771093E+00 -6.740292899870E+00 -5.537393040055E+00 1.567383182308E+00 -4.861146168306E+00 -2.432702211210E+00 -3.800178947082E-01 3.689097570884E+01
 -2.607056890104E-01 -4.339338836512E+00 -1.633936751145E+01 -1.933091944499E+00 -4.113174769149E-01 1.898783877403E+00 1.660520289159E-01 -1.162945238256E+00 9.366843097664E-01 1.829725428545E+00 -4.323126906665E-01 1.806515835874E+00 3.254714632836E+00 2.829580836586E+00 1.776106306274E+00 -3.059804299641E+00 3.317860815722E+00 1.431941511752E+00 1.260522712411E-02 -4.260513852117E+00 -1.271268752124E+00 2.670882485127E-01 5.655984791736E-01 -1.419370173401E+00 4.105460270285E-01 9.189311856570E-02 8.426209216113E-02 -4.368441333316E+00 5.273001897022E+00 -5.369317178381E+00 4.098154310866E+00 4.827794485599E+00 -4.859254245063E+00 -2.920446419524E-01 -1.522676195207E-02 1.907012216091E-01 -4.261662060108E-01 3.493374799404E+00 -6.843629463657E-01 2.010211054247E+00 -2.672692800895E+00 -1.347363046410E+00 -2.098860782537E+00 -2.785103790002E+00 -1.314658038122E+00 -3.993554247008E-01 1.211370268938E+00 4.405122421244E-01 3.158506810355E-01 -6.006642019333E+00 9.876838348913E+00
 -2.873138275365E+01 1.751313422860E+00 -2.049857007874E+01 -5.164847383723E-01 5.846659366645E-02 1.926356216761E+00 6.720727092962E-02 -3.749319570883E-01 5.525185059913E-01 1.277132420503E+00 -2.885708771954E-01 -5.035271841687E-01 2.911028234496E+00 2.032282341408E+00 -7.625942725953E+00 -1.570550499606E-02 1.199391356629E+00 9.130572277178E+00 -1.245425975861E+00 8.020124702336E-01 -1.164131303109E+00 9.109343176314E-02 2.365938128386E+00 2.238000352285E+00 -1.408477194660E+00 3.746528179023E-01 -9.466927183502E-02 -2.368556783894E-01 -7.007572758522E-02 -4.596137806585E+00 1.373633961612E-01 1.957838882218E-01 -4.272189021244E+00 -1.651984690508E+00 -3.468859776839E-01 1.809439845386E-01 -4.002871672785E-01 -1.724636142069E-01 -5.930033941291E+00 -6.046888247229E-01 -2.758279890049E-01 4.177332480759E+00 -3.390680098862E-01 8.683038972102E-01 2.655474881918E+00 1.131787636375E-01 1.133032351304E+00 2.611038252409E+00 -2.062839251611E-02 -1.689672259591E+00 4.735226825558E-01 3.057398541335E+01
 3.293738854227E+00 -5.333527915690E+01 -1.153808417159E+02 2.943440887879E-01 2.223921585038E-01 4.938252142386E-01 1.175963458682E-01 3.626786390880E-01 4.232713042160E-01 -1.218256801449E-01 3.257355746898E-01 6.576493464580E-01 9.376699515605E-01 1.166315814051E-01 -9.067209804698E+00 -9.061164959065E-01 -2.415786001711E-01 -9.203083386586E+00 3.674065756941E+00 -1.606618021320E+01 -1.238652646536E+01 -5.355662107186E-01 3.132555529408E+00 9.526134646898E+00 3.395743655293E-01 -7.401520891603E-02 1.056896690045E-01 -3.094728925040E-01 -2.086006256131E+00 -1.309517513338E+01 2.009313935135E-01 -2.316004532483E+00 -1.387879112847E+01 -1.371752226150E-01 -6.509715489212E-02 3.345445442676E-02 -7.420688519168E-03 -8.941892451371E+00 -1.601494499037E+01 -2.014162640211E+00 7.387569226583E-01 1.296870702871E+01 1.853315608744E+00 6.916272550405E-01 1.407818492466E+01 7.648091898126E-01 2.208130695541E+00 7.062370320235E+00 1.184431411012E-01 1.158896890149E-01 4.756187656397E-01 -7.562748865465E+00 7.521165552871E+01
 -1.869119904321E+01 -1.683471339949E+02 -1.242054129496E+03 -1.998613005769E+01 -1.215593336800E+00 1.982295552645E+01 2.602429904820E+00 -6.577606615302E+00 1.469455702975E+01 2.048386479415E+01 -1.257140994949E+00 1.871288687914E+01 3.458027971460E+01 3.000434426180E+01 9.164087580287E+00 -3.390201134726E+01 3.540501869108E+01 5.123700097546E+00 -1.972087724620E+00 -6.416858292271E+01 -1.018248278001E+02 -1.006455226763E+00 7.122698013235E+01 8.245306046559E+01 3.476510622455E+00 7.129450893986E-01 1.257542761034E+00 -5.550069699639E+00 -9.867574652615E+00 -1.796346773136E+02 6.077061366031E+00 -1.283270926320E+01 -1.880559391731E+02 -1.089613083424E+00 1.057693345084E-01 1.718099039721E+00 -6.858910221248E+00 -5.264452025008E+01 -1.999403069406E+02 -1.318007404514E+01 1.820925552105E+01 1.469357127310E+02 9.690740100655E+00 1.801305998077E+01 1.601620812215E+02 3.450949416141E+00 3.830715362440E+01 9.427054521231E+01 1.135272831617E+00 -3.827533155507E+01 1.416261614544E+01 2.073944169853E+01 1.432016669502E+02 1.343032036034E+03

