 Job started on host DESKTOP-5CQNRD0
 at Sat Aug 31 16:16:47 2019

 +-------------------------------------------------+
 |                                                 |
 |      CCC   AA    SSS  TTTTT  EEEEE  PPPP        |
 |     C     A  A  S       T    E      P   P       |
 |     C     AAAA   SS     T    EEE    PPPP        |
 |     C     A  A     S    T    E      P           |
 |      CCC  A  A  SSS     T    EEEEE  P           |
 |                                                 |
 +-------------------------------------------------+
 |                                                 |
 | Materials Studio CASTEP version 2017            |
 | Ab Initio Total Energy Program                  |
 |                                                 |
 | Authors:                                        |
 | M. Segall, M. Probert, C. Pickard, P. Hasnip,   |
 | S. Clark, K. Refson, J. R. Yates, M. Payne      |
 |                                                 |
 | Contributors:                                   |
 | P. Lindan, P. Haynes, J. White, V. Milman,      |
 | N. Govind, M. Gibson, P. Tulip, V. Cocula,      |
 | B. Montanari, D. Quigley, M. Glover,            |
 | L. Bernasconi, A. Perlov, M. Plummer,           |
 | E. McNellis, J. Meyer, J. Gale, D. Jochym       |
 | J. Aarons, B. Walker, R. Gillen, D. Jones       |
 | T. Green, I. J. Bush, C. J. Armstrong,          |
 | E. J. Higgins, E. L. Brown, M. S. McFly         |
 |                                                 |
 | Copyright (c) 2000 - 2016                       |
 |                                                 |
 | Please cite                                     |
 |                                                 |
 |     "First principles methods using CASTEP"     |
 |                                                 |
 |         Zeitschrift fuer Kristallographie       |
 |           220(5-6) pp. 567-570 (2005)           |
 |                                                 |
 | S. J. Clark, M. D. Segall, C. J. Pickard,       |
 | P. J. Hasnip, M. J. Probert, K. Refson,         |
 | M. C. Payne                                     |
 |                                                 |
 |       in all publications arising from          |
 |              your use of CASTEP                 |
 |                                                 |
 +-------------------------------------------------+
 
 
 This version was compiled for x86_64-windows-msvc2008 on May 05 2016
 Intel(R) Math Kernel Library Version 11.1.2 
 Fundamental constants values: CODATA 2010
 
License checkout of MS_castep successful
 
 
 Atomic calculation performed for Ni: 1s2 2s2 2p6 3s2 3p6 3d8 4s2
 
 Converged in 91 iterations to an ae energy of -41375.898 eV
 
 Identity difference: 8.24E-04
 
   ============================================================                
   | Pseudopotential Report - Date of generation 31-08-2019   |                
   ------------------------------------------------------------                
   | Element: Ni Ionic charge: 10.00 Level of theory: PBE     |                
   | Atomic Solver: Koelling-Harmon                           |                
   |                                                          |                
   |               Reference Electronic Structure             |                
   |         Orbital         Occupation         Energy        |                
   |            3d              8.000           -0.326        |                
   |            4s              2.000           -0.207        |                
   |                                                          |                
   |                 Pseudopotential Definition               |                
   |        Beta     l      e      Rc     scheme   norm       |                
   |          1      0   -0.207   1.999     qc      0         |                
   |          2      0    0.250   1.999     qc      0         |                
   |          3      1    0.000   1.999     qc      0         |                
   |          4      1    0.250   1.999     qc      0         |                
   |          5      2   -0.326   1.999     qc      0         |                
   |          6      2    0.250   1.999     qc      0         |                
   |         loc     3    0.000   2.191     pn      0         |                
   |                                                          |                
   | Augmentation charge Rinner = 1.001                       |                
   | Partial core correction Rc = 1.001                       |                
   ------------------------------------------------------------                
   | "3|2.2|2|1|10|12.1|14.7|40UU:41UU:32UU(qc=6)[]"          |                
   ------------------------------------------------------------                
   |      Author: Chris J. Pickard, Cambridge University      |                
   ============================================================                
 
 Doing a self consistent calculation for the test configuration
 
 Atomic calculation performed for Ni: 1s2 2s2 2p6 3s2 3p6 3d8 4s2
 
 Converged in 91 iterations to an ae energy of -41375.898 eV
 
 ---------------------------------------
 AE eigenvalue nl 10 =     -301.79263876
 AE eigenvalue nl 20 =      -36.08162216
 AE eigenvalue nl 21 =      -31.04152791
 AE eigenvalue nl 30 =       -4.08135009
 AE eigenvalue nl 31 =       -2.62346104
 AE eigenvalue nl 32 =       -0.32611860
 AE eigenvalue nl 40 =       -0.20737752
 ---------------------------------------
 PS eigenvalue nl 32 =       -0.32597884
 PS eigenvalue nl 40 =       -0.20738932
 ---------------------------------------
 Maximum eigenvalue error:   1.40E-04
 
 Derived cutoff energies: C=   8 M=  12 F=  12 E=  16
 
 
 ***************************************
 
 Pseudo atomic calculation performed for Ni 3d8 4s2
 
 Converged in 40 iterations to a total energy of -1355.1527 eV
 
 Calculation not parallelised.

 ************************************ Title ************************************
 CASTEP calculation from Materials Studio

 ***************************** General Parameters ******************************
  
 output verbosity                               : normal  (1)
 write checkpoint data to                       : Ni.check
 type of calculation                            : geometry optimization
 stress calculation                             : on
 density difference calculation                 : off
 electron localisation func (ELF) calculation   : off
 Hirshfeld analysis                             : off
 unlimited duration calculation
 timing information                             : on
 memory usage estimate                          : on
 write final potential to formatted file        : off
 write final density to formatted file          : off
 write BibTeX reference list                    : on
 write OTFG pseudopotential files               : on
 checkpoint writing                             : both castep_bin and check files
  
 output         length unit                     : A
 output           mass unit                     : amu
 output           time unit                     : ps
 output         charge unit                     : e
 output           spin unit                     : hbar/2
 output         energy unit                     : eV
 output          force unit                     : eV/A
 output       velocity unit                     : A/ps
 output       pressure unit                     : GPa
 output     inv_length unit                     : 1/A
 output      frequency unit                     : cm-1
 output force constant unit                     : eV/A**2
 output         volume unit                     : A**3
 output   IR intensity unit                     : (D/A)**2/amu
 output         dipole unit                     : D
 output         efield unit                     : eV/A/e
 output        entropy unit                     : J/mol/K
  
 wavefunctions paging                           : none
 random number generator seed                   : randomised (161659422)
 data distribution                              : optimal for this architecture
 optimization strategy                          : maximize speed(+++)

 *********************** Exchange-Correlation Parameters ***********************
  
 using functional                               : Perdew Burke Ernzerhof
 relativistic treatment                         : Koelling-Harmon
 DFT+D: Semi-empirical dispersion correction    : off

 ************************* Pseudopotential Parameters **************************
  
 pseudopotential representation                 : reciprocal space
 <beta|phi> representation                      : reciprocal space
 spin-orbit coupling                            : off

 **************************** Basis Set Parameters *****************************
  
 plane wave basis set cut-off                   :   400.0000   eV
 size of standard grid                          :     1.7500
 size of   fine   grid                          :     2.1000
 size of   fine   gmax                          :    21.5173   1/A
 largest prime factor in FFT                    :          5
 finite basis set correction                    : automatic
 number of sample energies                      :          3
           sample  spacing                      :     5.0000   eV

 **************************** Electronic Parameters ****************************
  
 number of  electrons                           :  10.00    
 net charge of system                           :  0.000    
 net spin   of system                           :  2.000    
 number of  up  spins                           :  6.000    
 number of down spins                           :  4.000    
 treating system as spin-polarized
 number of bands                                :         10

 ********************* Electronic Minimization Parameters **********************
  
 Method: Treating system as metallic with density mixing treatment of electrons,
         and number of  SD  steps               :          1
         and number of  CG  steps               :          4
  
 total energy / atom convergence tol.           : 0.1000E-05   eV
 eigen-energy convergence tolerance             : 0.1000E-06   eV
 max force / atom convergence tol.              : ignored
 convergence tolerance window                   :          3   cycles
 max. number of SCF cycles                      :        100
 number of fixed-spin iterations                :          6
 smearing scheme                                : Gaussian
 smearing width                                 : 0.1000       eV
 Fermi energy convergence tolerance             : 0.2721E-13   eV
 periodic dipole correction                     : NONE

 ************************** Density Mixing Parameters **************************
  
 density-mixing scheme                          : Pulay
 max. length of mixing history                  :         20
 charge density mixing amplitude                : 0.5000    
   spin density mixing amplitude                :  2.000    
 cut-off energy for mixing                      :  400.0       eV
 charge density mixing g-vector                 :  1.500       1/A
   spin density mixing g-vector                 :  1.500       1/A

 ********************** Geometry Optimization Parameters ***********************
  
 optimization method                            : BFGS
 variable cell method                           : fixed basis quality
 max. number of steps                           :        100
 estimated bulk modulus                         :  500.0       GPa
 estimated <frequency>                          :  1668.       cm-1
 geom line minimiser                            : on
 with line minimiser tolerance                  :     0.4000
  with spin fully able to relax for all steps
 total energy convergence tolerance             : 0.1000E-04   eV/atom
        max ionic |force| tolerance             : 0.3000E-01   eV/A
 max ionic |displacement| tolerance             : 0.1000E-02   A
   max |stress component| tolerance             : 0.5000E-01   GPa
 convergence tolerance window                   :          2   steps
 backup results every                           :          5   steps

 *******************************************************************************
  
 
                           -------------------------------
                                      Unit Cell
                           -------------------------------
        Real Lattice(A)                      Reciprocal Lattice(1/A)
   0.0000000   1.7620000   1.7620000       -1.7829697   1.7829697   1.7829697
   1.7620000  -0.0000000   1.7620000        1.7829697  -1.7829697   1.7829697
   1.7620000   1.7620000   0.0000000        1.7829697   1.7829697  -1.7829697
 
                       Lattice parameters(A)       Cell Angles
                    a =    2.491844          alpha =   60.000000
                    b =    2.491844          beta  =   60.000000
                    c =    2.491844          gamma =   60.000000
 
                       Current cell volume =   10.940765       A**3
 
                           -------------------------------
                                     Cell Contents
                           -------------------------------
                         Total number of ions in cell =    1
                      Total number of species in cell =    1
                        Max number of any one species =    1
 
            xxxxxxxxxxxxxxxxxxxxxxxxxxxxxxxxxxxxxxxxxxxxxxxxxxxxxxxxxxxx
            x  Element    Atom        Fractional coordinates of atoms  x
            x            Number           u          v          w      x
            x----------------------------------------------------------x
            x  Ni           1         0.000000   0.000000   0.000000   x 
            xxxxxxxxxxxxxxxxxxxxxxxxxxxxxxxxxxxxxxxxxxxxxxxxxxxxxxxxxxxx
 
 
                         No user defined ionic velocities
 
                           -------------------------------
                                   Details of Species
                           -------------------------------
 
                               Mass of species in AMU
                                    Ni   58.7099991
 
                          Electric Quadrupole Moment (Barn)
                                    Ni    0.1620000 Isotope 61
 
                          Files used for pseudopotentials:
                                    Ni 3|2.2|2|1|10|12.1|14.7|40UU:41UU:32UU(qc=6)[]
 
                           -------------------------------
                              k-Points For BZ Sampling
                           -------------------------------
                       MP grid size for SCF calculation is 12 12 12
                            with an offset of   0.000  0.000  0.000
                       Number of kpoints used =           182
 
                           -------------------------------
                               Symmetry and Constraints
                           -------------------------------
 
                      Maximum deviation from symmetry = 0.200000E-14     ANG
 
                      Number of symmetry operations   =          48
         There are no ionic constraints specified or generated for this cell
                      Point group of crystal =    32: Oh, m-3m, 4/m -3 2/m
                      Space group of crystal =   225: Fm-3m, -F 4 2 3
 
             Set iprint > 1 for details on symmetry rotations/translations
 
                         Centre of mass is NOT constrained
 
                         Number of cell constraints= 5
                         Cell constraints are:  1 1 1 0 0 0
 
                         External pressure/stress (GPa)
                          0.00000   0.00000   0.00000
                                    0.00000   0.00000
                                              0.00000
  
+---------------- MEMORY AND SCRATCH DISK ESTIMATES PER PROCESS --------------+
|                                                     Memory          Disk    |
| Baseline code, static data and system overhead        0.0 MB         0.0 MB |
| BLAS internal memory storage                          0.0 MB         0.0 MB |
| Model and support data                               42.1 MB         0.0 MB |
| Electronic energy minimisation requirements          26.8 MB         0.0 MB |
| Force calculation requirements                        1.4 MB         0.0 MB |
| Stress calculation requirements                       1.5 MB         0.0 MB |
|                                               ----------------------------- |
| Approx. total storage required per process           68.9 MB         0.0 MB |
|                                                                             |
| Requirements will fluctuate during execution and may exceed these estimates |
+-----------------------------------------------------------------------------+
Calculating finite basis set correction with  3 cut-off energies.
Calculating total energy with cut-off of  390.000eV.
------------------------------------------------------------------------ <-- SCF
SCF loop      Energy           Fermi           Energy gain       Timer   <-- SCF
                               energy          per atom          (sec)   <-- SCF
------------------------------------------------------------------------ <-- SCF
Initial  -1.19180682E+003  0.00000000E+000                        10.11  <-- SCF
      1  -1.34234378E+003  9.86545277E+000   1.50536961E+002      13.84  <-- SCF
      2  -1.36054619E+003  8.45213744E+000   1.82024093E+001      17.11  <-- SCF
      3  -1.36086205E+003  8.52032341E+000   3.15860379E-001      20.31  <-- SCF
      4  -1.36082325E+003  8.01431293E+000  -3.87977677E-002      23.28  <-- SCF
      5  -1.36082709E+003  8.16987734E+000   3.83594659E-003      26.16  <-- SCF
      6  -1.36234991E+003  5.09528670E+000   1.52282272E+000      29.12  <-- SCF
      7  -1.36225602E+003  5.85691206E+000  -9.38903080E-002      32.12  <-- SCF
      8  -1.36251032E+003  5.46211779E+000   2.54301474E-001      35.02  <-- SCF
      9  -1.36251091E+003  5.51214591E+000   5.85499174E-004      37.86  <-- SCF
     10  -1.36251483E+003  5.52135206E+000   3.92123315E-003      40.73  <-- SCF
     11  -1.36251520E+003  5.51366185E+000   3.76456613E-004      43.75  <-- SCF
     12  -1.36251526E+003  5.51196560E+000   5.39894772E-005      46.77  <-- SCF
     13  -1.36251527E+003  5.51291808E+000   7.88065096E-006      49.80  <-- SCF
     14  -1.36251526E+003  5.51279985E+000  -9.10957995E-006      51.88  <-- SCF
     15  -1.36251526E+003  5.51281023E+000   9.64739510E-007      53.80  <-- SCF
     16  -1.36251526E+003  5.51285330E+000   7.52334560E-008      55.95  <-- SCF
     17  -1.36251526E+003  5.51284735E+000   2.34785428E-007      57.95  <-- SCF
------------------------------------------------------------------------ <-- SCF
 
Integrated Spin Density     =    0.656387     hbar/2                        
Integrated |Spin Density|   =    0.749237     hbar/2                        
 
Final energy, E             =  -1362.506907722     eV
Final free energy (E-TS)    =  -1362.515258562     eV
(energies not corrected for finite basis set)
 
NB est. 0K energy (E-0.5TS)      =  -1362.511083142     eV
 
Calculating total energy with cut-off of  395.000eV.
------------------------------------------------------------------------ <-- SCF
SCF loop      Energy           Fermi           Energy gain       Timer   <-- SCF
                               energy          per atom          (sec)   <-- SCF
------------------------------------------------------------------------ <-- SCF
Initial  -1.36250708E+003  0.00000000E+000                        58.33  <-- SCF
      1  -1.36252248E+003  5.51214183E+000   1.53957716E-002      61.11  <-- SCF
      2  -1.36252248E+003  5.51214178E+000   6.83191969E-007      63.34  <-- SCF
      3  -1.36252248E+003  5.51669111E+000   5.07584838E-006      65.67  <-- SCF
      4  -1.36252248E+003  5.50653702E+000   4.32826710E-007      68.61  <-- SCF
      5  -1.36252248E+003  5.51407201E+000  -3.26918144E-006      71.44  <-- SCF
      6  -1.36252248E+003  5.51416690E+000  -1.85440198E-006      73.33  <-- SCF
      7  -1.36252248E+003  5.51385585E+000   1.25342277E-006      75.16  <-- SCF
      8  -1.36252248E+003  5.51398585E+000   2.92750734E-007      77.06  <-- SCF
      9  -1.36252248E+003  5.51397005E+000  -2.43431974E-007      78.92  <-- SCF
------------------------------------------------------------------------ <-- SCF
 
Integrated Spin Density     =    0.656619     hbar/2                        
Integrated |Spin Density|   =    0.749503     hbar/2                        
 
Final energy, E             =  -1362.514136990     eV
Final free energy (E-TS)    =  -1362.522480278     eV
(energies not corrected for finite basis set)
 
NB est. 0K energy (E-0.5TS)      =  -1362.518308634     eV
 
Calculating total energy with cut-off of  400.000eV.
------------------------------------------------------------------------ <-- SCF
SCF loop      Energy           Fermi           Energy gain       Timer   <-- SCF
                               energy          per atom          (sec)   <-- SCF
------------------------------------------------------------------------ <-- SCF
Initial  -1.36251431E+003  0.00000000E+000                        79.28  <-- SCF
      1  -1.36252877E+003  5.51349522E+000   1.44636563E-002      82.06  <-- SCF
      2  -1.36252877E+003  5.51349520E+000   4.43612657E-007      84.22  <-- SCF
      3  -1.36252878E+003  5.51744839E+000   4.59885623E-006      86.72  <-- SCF
      4  -1.36252878E+003  5.50852522E+000  -8.37323415E-007      89.91  <-- SCF
      5  -1.36252878E+003  5.51513655E+000  -1.45815797E-006      92.78  <-- SCF
      6  -1.36252877E+003  5.51521520E+000  -1.67184018E-006      94.94  <-- SCF
      7  -1.36252878E+003  5.51494654E+000   1.09404288E-006      97.02  <-- SCF
      8  -1.36252878E+003  5.51506067E+000   2.56548351E-007      99.00  <-- SCF
      9  -1.36252878E+003  5.51504613E+000  -2.10833027E-007     101.11  <-- SCF
------------------------------------------------------------------------ <-- SCF
 
Integrated Spin Density     =    0.656803     hbar/2                        
Integrated |Spin Density|   =    0.749710     hbar/2                        
 
Final energy, E             =  -1362.520432585     eV
Final free energy (E-TS)    =  -1362.528775589     eV
(energies not corrected for finite basis set)
 
NB est. 0K energy (E-0.5TS)      =  -1362.524604087     eV
 
 For future reference: finite basis dEtot/dlog(Ecut) =      -0.533732eV
 Total energy corrected for finite basis set =   -1362.528716 eV
 
+---------------- MEMORY AND SCRATCH DISK ESTIMATES PER PROCESS --------------+
|                                                     Memory          Disk    |
| Model and support data                               52.8 MB         0.0 MB |
| Electronic energy minimisation requirements          26.8 MB         0.0 MB |
| Geometry minimisation requirements                   39.6 MB         0.0 MB |
|                                               ----------------------------- |
| Approx. total storage required per process          119.3 MB         0.0 MB |
|                                                                             |
| Requirements will fluctuate during execution and may exceed these estimates |
+-----------------------------------------------------------------------------+
 
 
 ***************** Stress Tensor *****************
 *                                               *
 *          Cartesian components (GPa)           *
 * --------------------------------------------- *
 *             x             y             z     *
 *                                               *
 *  x     -0.009621     -0.000000      0.000000  *
 *  y     -0.000000     -0.009621      0.000000  *
 *  z      0.000000      0.000000     -0.009621  *
 *                                               *
 *  Pressure:    0.0096                          *
 *                                               *
 *************************************************
 BFGS: finished iteration     0 with enthalpy= -1.36252872E+003 eV
  
 +-----------+-----------------+-----------------+------------+-----+ <-- BFGS
 | Parameter |      value      |    tolerance    |    units   | OK? | <-- BFGS
 +-----------+-----------------+-----------------+------------+-----+ <-- BFGS
 |  dE/ion   |   0.000000E+000 |   1.000000E-005 |         eV | Yes | <-- BFGS
 |   Smax    |   9.621459E-003 |   5.000000E-002 |        GPa | Yes | <-- BFGS
 +-----------+-----------------+-----------------+------------+-----+ <-- BFGS
  
 BFGS: Geometry optimization completed successfully.

================================================================================
 BFGS: Final Configuration:
================================================================================
 
                           -------------------------------
                                      Unit Cell
                           -------------------------------
        Real Lattice(A)              Reciprocal Lattice(1/A)
   0.0000000   1.7620000   1.7620000       -1.7829697   1.7829697   1.7829697
   1.7620000  -0.0000000   1.7620000        1.7829697  -1.7829697   1.7829697
   1.7620000   1.7620000   0.0000000        1.7829697   1.7829697  -1.7829697
 
                       Lattice parameters(A)       Cell Angles
                    a =    2.491844          alpha =   60.000000
                    b =    2.491844          beta  =   60.000000
                    c =    2.491844          gamma =   60.000000
 
                Current cell volume =   10.940765 A**3
 
 BFGS: Final Enthalpy     = -1.36252872E+003 eV
 BFGS: Final bulk modulus unchanged from initial value
 
 ***************************** Symmetrised Forces *****************************
 *                                                                            *
 *                        Cartesian components (eV/A)                         *
 * -------------------------------------------------------------------------- *
 *                   x                    y                    z              *
 *                                                                            *
 * Ni        1      0.00000              0.00000              0.00000         *
 *                                                                            *
 ******************************************************************************
 
 *********** Symmetrised Stress Tensor ***********
 *                                               *
 *          Cartesian components (GPa)           *
 * --------------------------------------------- *
 *             x             y             z     *
 *                                               *
 *  x     -0.009621     -0.000000      0.000000  *
 *  y     -0.000000     -0.009621      0.000000  *
 *  z      0.000000      0.000000     -0.009621  *
 *                                               *
 *  Pressure:    0.0096                          *
 *                                               *
 *************************************************

Writing analysis data to Ni.castep_bin

Writing model to Ni.check
 
 A BibTeX formatted list of references used in this run has been written to 
 Ni.bib
 
Initialisation time =      8.44 s
Calculation time    =     93.36 s
Finalisation time   =      0.22 s
Total time          =    102.02 s
