#BIOSYM hessian 1
@Type: Hessian Update
@Units
 distance: 	A
 energy: 	Kcal/Mol
#header
@natom 19

#label
L1      L2      L3      L4      L5      L6      L7      L8      L9      L10     L11     L12     L13     L14     L15     L16     L17     L18     L19

#element
Li Li Li Li Li Li Li Li Li Li Li Li Li Li Li Li Li Li Li

#matrix
57
 1.001922427826E+01
 -3.216442357770E+00 1.255584557292E+01
 -2.995609646345E+00 1.433703590585E+00 1.271023102274E+01
 -1.503694014065E+00 -8.002359416844E-01 -1.584377788567E-01 5.560259451242E+00
 -1.754394780158E+00 -1.486328208587E-01 3.839908745934E-01 -5.369707437812E-01 7.998854242915E+00
 1.538750787555E+00 -2.004207767962E-01 7.288464237036E-01 1.264621460138E+00 -1.323983590451E+00 3.521624413822E+00
 -3.981227215273E-02 7.892777666693E-01 7.072160192395E-01 5.750734156116E-01 8.411830648459E-01 1.014947761795E+00 1.881847601940E+01
 1.629346450897E+00 -2.356660035544E-01 -4.255621247534E-01 2.653372391423E+00 -9.558535889331E-01 2.017982719118E+00 -3.994119454849E+00 1.362360593026E+01
 -1.314589437282E+00 4.674385390266E-01 -1.690710959021E-01 -1.822904152539E+00 2.296612658861E+00 -2.103701453803E+00 -9.403506438032E-01 -9.083578110456E-01 2.558162977349E+01
 -1.803298630942E+00 -4.337031724481E-01 -2.755797887951E+00 1.809362321262E+00 -1.334730023123E+00 -5.303543824272E-01 -1.171563274425E+01 5.163774771106E+00 1.463022656847E+00 1.692892627679E+01
 -2.189903980801E+00 1.663183801790E+00 1.129445048768E+00 7.276679440514E-01 -1.001459735056E+00 1.166379570438E+00 1.117793832215E+00 5.123454789365E-01 4.128185895689E-01 1.396113505929E+00 1.299996916396E+01
 1.995591039245E+00 -7.953486760169E-02 -4.702159363599E-01 -7.450128341778E-01 5.261202140549E-01 1.425690577567E+00 3.961721142778E+00 6.688447722191E-01 -7.911486919956E-01 -5.738747517905E+00 -3.683552463034E+00 1.913448808421E+01
 9.084178377078E-01 1.642536709504E-02 1.813291709117E-01 7.043490732924E-01 -4.318847928129E-01 1.446434833204E+00 8.333246088666E-01 5.918633660039E-01 -1.317430234495E+00 -2.711291381004E-01 2.415824353705E-01 5.427048694702E-01 4.798134852669E+00
 3.930788808403E-02 8.257576250621E-01 -1.846806181880E+00 -1.251795686462E-01 5.938977342069E-01 -1.402056290407E+00 -8.423713495636E-01 -1.144157355589E+00 1.036869444467E-01 1.363445667144E+00 -4.934647721895E-01 2.866481006036E+00 2.311856092078E+00 9.916972328371E+00
 3.490107769431E-01 -3.200003452666E-01 5.905325743265E-01 8.113421544493E-01 -2.557299374400E-01 -1.965696754565E+00 -1.613157441689E+00 -2.108716168227E+00 -3.218339693411E-01 -1.782820819542E+00 -5.970109963539E+00 -6.190675621525E+00 -5.057551533609E+00 -2.957493543608E+00 1.802915308736E+01
 -1.472230596187E+00 1.420381117308E+00 -1.938020058354E+00 2.454457982073E+00 7.970964195455E-01 1.186428862864E+00 1.724905406730E+00 -1.490931317557E+00 -1.699039512438E+00 -2.555326693154E+00 5.004953577044E+00 1.016837220269E-01 3.526850148365E-01 -3.423083994261E-01 -1.216189035154E+00 1.849256245126E+01
 -1.153726594147E+00 -1.790483408428E+00 -1.807252167592E+00 -2.151158481471E+00 8.333487003257E-01 -6.115526824075E-01 1.455044743888E-02 -2.733363922355E-02 1.008427304869E+00 1.236163688344E-01 -2.057489556023E+00 -2.177798723446E-01 -1.359424563045E+00 -2.316999772995E+00 8.005955451638E-01 -4.937925377327E+00 7.732261712178E+00
 -1.718187178182E+00 -2.900821736055E+00 -5.918170693864E+00 1.674587814787E-01 5.878395767373E-01 -2.633121633754E-01 -1.166699055594E+00 -1.506358376311E-01 1.535078216449E-01 2.662252643563E+00 -1.015409252888E+00 -9.247647550055E-02 2.597543754401E-01 1.454802691242E+00 5.061125994828E-01 -1.378819255106E+00 -2.052114946468E+00 1.802438127676E+01
 5.330534562097E-01 -2.167368560435E+00 1.944431726364E-01 -1.666826885410E+00 2.255140748100E+00 -6.466363585630E-01 -1.249250323489E+00 -2.162029333468E+00 3.924949919641E-01 -4.469954516830E+00 -3.347826766282E+00 -2.137653245301E+00 -4.584165461211E-01 -8.746048027690E-01 3.152139035969E+00 -3.313068126529E-01 1.094056515720E+00 9.990774060355E-01 1.632465197066E+01
 -1.222262867871E-01 -4.559671440817E+00 2.252538129589E+00 -3.862043013884E-02 -2.813227955466E-01 1.035034417929E+00 -1.949952927567E-01 1.685305655300E+00 6.919169115811E-01 1.076278922937E+00 1.896334414401E+00 -1.653642753972E-01 -3.982467571064E-01 -2.126233256820E+00 -1.045304895302E+00 -1.397945634496E+00 2.080290545637E+00 1.366611107286E-01 -2.663185599850E+00 7.435058681906E+00
 2.763458121451E-01 1.497534300191E+00 -2.725392528684E+00 8.922342638462E-01 6.773539021098E-02 -2.035114136625E-02 7.372769329804E-01 8.121743524009E-01 5.369520014539E-01 7.858094467520E-01 3.268468550173E-02 1.739786231634E+00 -4.291153088330E-01 -6.778566877975E-02 3.635045873376E-01 -5.070161291002E-01 2.691029253406E-01 -1.966182537812E-01 -7.117383407512E-01 -4.630567057959E-01 1.300551903423E+01
 2.131647837441E-01 6.562981332308E-01 2.107004368084E-01 -8.405719796084E-01 2.385394921011E-01 -3.017053181490E-01 -9.345328117869E-01 -4.288848712475E-01 2.569422199029E-01 8.738835839115E-01 1.037859232869E+00 2.501571323880E+00 3.377993318888E-01 9.556358965592E-01 -8.822092973504E-01 -5.708727283658E-01 6.669059764659E-01 -1.064228102192E+00 -1.720383701945E+00 2.184918351221E-01 7.217731901456E-02 1.093280985950E+01
 2.872283842493E-01 4.241023588973E-01 -1.631477192763E-01 -2.524931200929E-01 1.076652568839E+00 2.385258640323E-01 -3.579787847642E-01 2.088767925338E-03 -2.619152765307E-01 4.239065332775E+00 -1.647516748208E-01 -4.217043088246E+00 -1.382701251508E-01 -1.232157462183E+00 2.991321039359E-01 -5.171476675463E-01 -2.512377309806E+00 4.281263874362E+00 -5.769554635090E-01 -9.199660578132E-01 8.479298636608E-01 -2.258373935664E+00 1.758576137360E+01
 -5.028170869144E-01 4.978712383780E-01 1.153455360569E+00 5.267430340358E-01 8.215952408245E-02 5.867604854346E-01 1.025578705647E+00 3.163729214267E-01 -5.179341491982E-02 4.561438301308E+00 -2.578034898681E+00 -4.743959320903E+00 -9.195817694834E-01 -1.917585073971E+00 5.465729853558E-01 -2.209447802415E+00 4.560274561427E+00 -7.347680242375E+00 7.388831800842E-01 1.049811273207E+00 -1.604103455957E+00 -5.811953440046E+00 1.591551990820E+00 2.159778684079E+01
 -8.109585220727E-02 2.977228803593E-01 3.095464340896E+00 -4.182232982206E+00 3.812235122211E+00 1.008765900991E-01 -4.035866530816E+00 1.440757357607E+00 -1.580720764891E+00 -1.452024006156E-01 -4.692999090774E+00 3.897685072446E+00 -1.631791088012E+00 1.699749609857E+00 9.664413101938E-01 -1.054348551349E+01 2.492861049876E+00 6.706856183616E+00 3.948124831483E+00 1.265368261487E+00 -1.881861384844E+00 -2.389556707354E-03 1.276740042426E+00 1.051708989292E+00 2.186659870808E+01
 1.041999958006E+00 -2.392648958899E+00 2.412295739781E-01 -8.468259888729E-01 2.037765942761E+00 -4.077612104779E-01 5.210798763423E+00 -6.328707228274E+00 5.996274872564E+00 -5.818806863970E+00 -6.040513122088E+00 5.773519476643E+00 6.589586430417E-01 5.944541610999E-01 -2.803285959964E-02 2.622408143070E+00 -1.031765001370E-01 -2.680082485929E+00 1.126351413522E+00 3.359064381667E-01 -2.975223826844E-01 4.390231872097E-01 2.199198376699E-01 7.922784586926E-01 -5.542771839083E+00 2.022065242312E+01
 9.836007691443E-01 1.315419379685E+00 -1.029222302136E+00 2.871214046601E+00 -2.037308219298E+00 1.556585056577E-01 -2.544390900619E+00 2.952292935402E+00 -3.054068070429E+00 8.223287446795E+00 7.392200317957E+00 -1.202047552931E+01 -1.007458638626E+00 -1.997412895236E+00 1.469099158322E+00 5.122572427508E+00 -3.630998614052E+00 -3.606542771493E+00 -4.268193309367E+00 7.002704020987E-01 1.315878447420E+00 -1.030880027409E+00 3.866203254801E-01 6.367129505852E-01 -1.208492781928E+01 -6.317475438983E+00 2.580275386811E+01
 8.999653083959E-01 -7.102285982802E-01 1.695269603110E+00 1.151276189949E-01 -5.378951390211E-01 1.277662208595E+00 6.708172016176E-01 7.697261164823E-01 6.583360329788E-01 -5.266328212269E-01 2.359304706918E+00 3.521415893468E+00 -2.478438274733E+00 -2.401695100640E+00 -2.870567354170E-02 -3.520276460979E-01 -6.538973883942E-01 -6.514372498515E-01 1.606791040160E+00 1.300185382325E+00 1.917224036707E-01 -3.798477032548E-01 2.582759089101E-01 -6.341347888182E-01 5.999978473361E-01 6.132766438027E-01 1.096456191547E+00 7.375627078885E+00
 1.074571695286E-02 4.004630127657E-01 -2.078773978515E-01 2.574203200400E+00 -1.816802021593E+00 3.624453518758E-01 -2.651998778071E-01 1.931486007553E+00 -1.966186901171E+00 -6.627264533162E-01 -4.665944251813E+00 -3.083124574081E+00 1.510201960571E-01 -2.394511298912E-01 6.853451884523E+00 8.827943041965E-02 -6.826916973063E-01 1.168858606723E+00 -1.374113475698E+00 1.095062834989E+00 -1.178436116553E+00 -5.629411262099E-02 -3.851769083284E-01 -1.123627090296E+00 -1.807708778953E+00 1.144058545882E+00 2.608004728979E+00 -2.643181888648E+00 1.042593877555E+01
 -5.115044814852E-01 6.206009513336E-01 -3.016541239223E-01 -2.475416845270E-01 1.163934569643E+00 -9.362219282349E-01 -5.680412474300E-01 -5.679666494551E-01 1.568849498391E+00 1.614802427469E+00 -3.629206967509E+00 -1.215584252163E+00 1.744898691838E+00 9.124637188278E-01 2.494576349342E-01 -1.073062169332E-01 2.629866676832E-02 1.113982434231E-01 9.431490791422E-01 -1.523330639743E+00 -1.517887385250E-01 6.594716481481E-02 6.267644794522E-01 -5.237396661823E-01 -2.185254054658E-01 -1.396332579745E+00 2.427432514546E+00 -3.198937331510E+00 3.029164660242E+00 1.261073850641E+01
 -1.105697019574E-01 1.003177784915E+00 2.502773451111E+00 7.321963282792E-01 -4.463227922297E-01 -1.281514946706E+00 1.585037093811E+00 -3.256328117571E+00 1.938921979165E+00 -6.175352832917E-01 2.611424635712E+00 1.675745227056E+00 -2.733392000677E+00 -3.187991464473E+00 3.130096225301E+00 9.869871425357E-01 -2.485185645631E+00 -5.400079275447E-01 -8.408425634760E+00 1.010361147778E+00 3.088404593492E+00 9.862321467028E-01 -7.914316354242E-01 -1.901892442451E+00 -2.745829169299E+00 -1.345243666937E+00 5.872964532392E+00 1.361147546515E+00 -7.944003009339E-02 -6.632630531409E-01 2.284215812242E+01
 1.962003941084E+00 -3.478977376153E+00 3.205440768793E-01 -2.338459121991E-02 -5.178876682770E-01 6.225523716187E-01 -2.827086443927E-01 3.983351129897E-01 -2.376565700643E+00 -1.529325463181E+00 -6.761613617719E-01 -3.802188743233E+00 -2.312383798551E+00 -7.176072330990E+00 6.206581374518E+00 -3.512267336703E+00 1.747086137509E+00 1.187121724202E+00 5.129677747174E+00 5.626174106798E-01 1.659957251087E-01 -5.517808200197E-01 5.564066346645E-01 -1.025178210783E+00 1.550353052872E+00 -4.057672969690E+00 1.619115025909E+00 2.680153738674E+00 4.940587564313E-01 2.134627172164E-02 3.604853519357E+00 1.305880664409E+01
 -1.291950696529E+00 2.332872529653E+00 3.265207948004E+00 -2.805257718596E+00 8.833423229321E-01 4.820812182033E-01 -7.499453199687E-01 -1.785529701650E+00 -4.179836318891E-01 -3.771663147891E+00 -3.591840271330E-01 -4.899261448183E+00 1.566953755044E+00 2.375957595389E+00 1.836244546504E+00 -1.299959016460E+00 5.743351677541E-01 -5.460723177406E-02 7.172186783381E+00 5.692850489582E-01 -3.854200231373E+00 1.393483742977E+00 -2.099452659904E+00 -2.581284880492E+00 3.508962676207E+00 1.089199013066E+00 1.281369132719E+00 -3.643180774895E-01 4.138388289700E+00 1.648036149440E+00 -8.303915119351E+00 -6.662435605639E-01 1.596615691598E+01
 -3.840753881607E+00 2.489456266955E+00 -7.674939524568E-01 2.437608787720E+00 -3.162054673942E-01 -1.493280220011E-01 -1.219034680480E+00 -5.474697805757E-02 2.170426291438E+00 2.459796959013E+00 1.119261002418E+00 -3.835841091519E-01 -8.882984610392E-01 1.358622867957E+00 1.180761226803E+00 2.851762711745E+00 -3.235622470070E-01 8.210744978093E-02 5.991805129293E-01 -1.532230541594E+00 -1.575310289802E+00 2.713719447513E-01 2.976427755381E-02 1.557320683115E-01 -2.199295153174E+00 -1.229163877310E+00 -1.729564272334E+00 3.982149107974E-01 -6.573632678417E-01 4.580720890611E-01 -9.633537207345E+00 -5.240495636633E+00 8.189026689112E-02 2.052859121583E+01
 -7.693536908767E-01 2.910370576661E+00 5.452638399986E-01 -1.579333182744E-01 -3.511474856735E-01 7.003782019773E-01 1.506005466619E-01 3.083619202622E-01 2.655667429908E-01 2.491813179930E-01 -5.175063435566E-01 -1.936116837617E+00 3.983579591630E-01 -1.555791213089E+00 7.773149214339E-01 6.224272171337E-01 -6.125895794411E-01 4.904701026593E-01 8.908747132960E-02 -1.182005543376E+00 -2.120790196129E+00 -1.839875699617E-01 3.883148461117E-01 3.880769937494E-02 -4.156418896501E-01 -2.139467193229E-01 1.213322420462E+00 -5.612350958453E-01 1.005769976735E+00 8.305179712663E-02 -1.843644384781E+00 2.901821096082E-01 1.874679957070E+00 3.394364807717E+00 3.437059823351E+00
 -1.209391280227E+00 1.889424851989E+00 -1.196485709706E+00 -4.314206874862E-01 -1.131430849282E+00 -3.077152805502E-01 -1.267600956543E+00 6.481066754063E-01 -8.222004400192E-01 9.028823227614E-01 8.499004745598E-01 1.534905114445E+00 1.484142647051E-02 1.420330733591E+00 -3.062495994165E+00 1.779258471969E+00 5.199315219233E-01 -8.807288823666E-01 -2.377854839427E+00 -3.548128182197E+00 -5.624757191690E+00 1.015964517391E-01 7.890192635825E-01 1.326060279864E+00 -5.527253830875E-01 -1.190831717893E+00 -3.050194730206E+00 -6.672875357903E-01 -1.685516002913E+00 -2.031845891970E-01 -4.038843744330E+00 -3.916266586337E+00 -1.567201949223E+00 -1.926718544803E-01 -7.632543396102E-01 1.442204415041E+01
 1.595060715340E+00 -1.064887823730E+00 -1.035041783491E-01 -1.022320759626E+00 -1.490768130516E+00 1.301518413451E+00 -9.875952981879E-01 -1.210231108643E+00 2.025072030338E+00 -2.379425885559E+00 1.771031553461E+00 -3.199823391797E+00 2.517619289177E-01 -1.030071743945E+00 1.066377902353E+00 2.076848302122E-01 4.897239776591E-01 -4.852787401814E-01 -1.238139105445E+00 1.450907805220E+00 -1.977705364644E-01 -5.094526328400E+00 1.254154690467E+00 1.203809594732E+00 -1.262866665359E-01 1.411694714450E+00 -7.786214825586E-01 -1.414220188585E+00 4.870201001045E-01 -8.306736270567E-01 7.573404272386E-01 4.967071538084E-01 7.485967028194E-01 -1.299774992794E+00 -2.364674833295E-01 -1.048556461935E+00 1.104825127024E+01
 2.354953997555E-01 3.707224218503E-02 8.024807726217E-01 -1.884004023253E-01 -1.605811144265E-01 6.239360299419E-01 1.908825476220E-02 -2.428618032907E+00 2.938480211242E+00 5.535626860471E-01 1.491403511296E-01 1.837739849399E+00 1.645702036261E-01 1.709342578905E-01 4.907647515303E-02 -3.786662954716E-01 1.035676146268E-01 -3.186153408813E-01 8.225310525469E-01 -5.653356180708E-01 -4.953728052596E-01 1.673747750879E+00 -2.451993554564E+00 7.856217206347E-01 -1.731901523868E-01 6.044678532391E-01 -1.247961107423E+00 -4.732752572641E-02 -1.749817704832E+00 -3.963157489476E-01 1.332945850567E+00 1.079893816569E+00 -1.154907313764E+00 6.019283996321E-01 3.965999901976E-01 9.302162917780E-01 -3.263035339749E+00 1.076705693379E+01
 7.005812406955E-01 3.707193424504E-01 -3.405784795005E-01 2.293983112502E-02 6.442585272080E-01 -1.436608527293E+00 1.895549825716E+00 3.411383871860E+00 -5.571411209734E+00 -9.387309261127E-01 1.839010298924E+00 -3.850870363180E+00 5.487815424056E-01 2.484066063909E-01 2.553134508135E+00 -1.185687689744E-01 1.351815331689E-01 3.753135070052E-01 -1.910926940902E+00 -1.092118893240E-01 2.188820406920E-01 1.084247780285E+00 1.151747447573E-01 -1.951909068618E+00 -9.125941923888E-01 1.490347632647E-01 1.106002788886E+00 -8.379497958890E-01 -6.049766317766E-01 -2.769001415388E+00 2.372828965450E-01 -7.374964993440E-02 -2.675641551836E-01 -1.464530853856E+00 5.923890868986E-02 -1.281468067469E+00 1.371639825117E+00 -5.765345168681E+00 1.914882312066E+01
 -2.436425983594E-01 8.284502248417E-01 -1.669207400223E-01 -1.463163335757E-01 2.956174424336E-01 2.165900896373E-01 5.877357762168E-01 1.156490142021E-01 -1.929706338621E-01 1.682742989149E-01 5.654379655478E-01 -8.955397741954E-02 1.191346268391E+00 1.335054201828E-01 -1.831068290593E+00 1.585189486517E-02 6.055137873263E-01 -5.511486207598E-01 -3.588066070964E+00 6.438294703723E-01 -9.409246948291E-01 -5.733844034699E-01 3.632561771833E-01 9.514818030096E-01 -1.665095190210E-01 -2.968360686592E-01 -7.064970982211E-01 -1.740283495232E+00 5.063420586257E-01 1.178893256550E+00 1.094482345633E+00 -1.269361822019E+00 -1.056645188549E+00 -7.688619573309E-01 1.484019789774E-01 9.740293365478E-01 1.543870652168E+00 -5.883624517500E-01 9.826134584011E-01 2.091863057120E+00
 5.126103984864E-01 -1.235766364783E+00 -5.931265179257E-01 4.466170555773E-01 -1.345309246386E+00 6.224464459101E-01 2.444792714507E-02 1.235011730147E-01 -1.711330006899E+00 -3.289558951884E+00 -1.099820854064E-01 5.457348116318E+00 9.977181944168E-01 2.210092871588E+00 -1.917074893623E+00 1.268124166731E+00 -8.313928825396E-01 -6.402663873379E-01 2.184093912631E+00 -3.468885068347E+00 1.382270520952E+00 -1.588255271476E+00 -9.528303745793E+00 -2.382608725515E+00 -1.357329395302E+00 6.870502329375E-02 -1.515448529503E+00 3.578660034438E-01 -3.421933682932E+00 -4.896739977495E-01 1.327228318519E+00 1.413348277754E-01 -1.546326573191E+00 3.284169623608E-01 -4.859303951145E-01 -3.780357847071E-01 2.758365132419E+00 -2.253979050456E-01 2.952729070447E-01 -1.102587547171E+00 1.585325151184E+01
 -1.736461947381E+00 1.436984498640E+00 -9.177387556416E-01 -1.092818967932E+00 -7.767751646310E-01 7.439374976346E-01 8.491129513894E-01 1.335547294650E+00 9.143424529812E-02 1.147441367435E-01 6.388989644648E+00 3.917430914805E+00 -6.467640458553E-01 -2.428816417213E-01 -9.004231239708E+00 8.980124178750E-01 9.912921648181E-01 -7.779685816067E-01 -2.470347889346E+00 2.265890347909E+00 -1.537797363856E+00 8.391659926230E-01 -3.025033780709E+00 -2.861122015978E+00 -3.777676144200E-01 -6.987626213133E-01 1.359878290741E+00 2.935149185611E+00 -3.437271062661E+00 -3.174610685020E+00 -9.959752093814E-01 -2.023680819619E+00 2.269151731473E-01 1.562792086795E-01 -5.113978741524E-02 1.948019118874E+00 -2.525700239315E-01 -6.081186573028E-01 -1.338749626362E+00 6.108424816125E-01 8.846165495948E-02 1.134957517483E+01
 9.219555150720E-01 -1.524981052924E+00 -4.140675138919E-01 -5.872527386646E-01 -5.263692079986E-01 -3.040254816343E+00 -1.545147259152E+00 1.819313444438E+00 4.475987758822E+00 7.700151666360E-01 -5.367662716175E+00 1.476547487158E+00 5.594379622304E-01 -3.039932256600E-02 4.042328123058E-02 -7.402999137212E+00 2.630808114081E+00 -2.627334955048E+00 1.343436745591E-01 -1.901017807052E-01 -3.729942630002E-01 -3.175145970101E+00 -2.955182116776E+00 -2.198296605540E-02 -2.938727055221E+00 1.143641662930E+00 2.801105156313E-01 -1.987123408359E-01 1.171587854036E+00 2.245161227399E+00 4.621030510047E-02 4.692660833076E-01 -1.431866532973E+00 -4.178793777686E-01 -4.923855124861E-02 1.048817969789E-01 -2.919136766536E+00 1.140218524276E+00 -1.721398068924E+00 2.843452469392E-01 -6.279877634191E-02 -4.296539858459E-01 1.613907607408E+01
 -4.449585513982E-01 4.996471402331E-01 -8.416760571320E-01 4.071870634467E-01 -1.735500570602E-01 -7.979100903360E-01 5.942379935609E-01 -4.745658651996E+00 -5.309381449482E+00 -9.410631700780E-01 -2.595541155353E+00 5.578733746152E-01 3.649136223355E-01 1.203027216379E+00 1.652056491684E-02 9.190583157103E-01 -1.286088771114E+00 1.091044266489E+00 1.635634076729E+00 -1.262752273588E+00 -6.227523664458E-01 -9.104098161452E-01 -2.430653152410E+00 -4.115962363913E-01 1.838632416814E+00 -1.748998593881E+00 -7.239826155215E-01 1.141932956652E+00 -1.699170786099E-02 1.021100491361E+00 -8.271516839517E-01 3.990839976308E-01 4.411237465808E-01 -5.533277852005E-02 3.517911531222E-01 -1.105500079770E+00 -3.221833217205E+00 -5.573803962537E+00 -5.639244563400E-01 -3.019215780800E-01 -1.437646678940E-01 1.719047627921E-01 8.166123642491E-01 1.802010101840E+01
 -4.911421371092E-01 -1.026680394326E+00 -2.609348941302E-01 -7.613803728845E-01 -2.648611135072E-01 5.957716661873E-01 8.941970656444E-01 -4.205586413881E+00 -4.772429712193E+00 -6.315408277122E-01 -1.611544869136E+00 4.017571673619E+00 -8.818190563896E-01 -1.470347681704E+00 5.254336380566E-01 -1.336137597372E+00 2.643261667747E+00 -2.129586184058E+00 -1.238136508397E+00 -1.480282043420E-01 7.962341837028E-01 1.736414393351E+00 5.149322507780E-01 -2.275073812377E+00 -9.893549168818E-01 1.099493579402E+00 -1.475089043868E+00 1.788502592894E+00 -2.026120620474E+00 3.633243238411E-01 -1.266611095599E-01 2.259954275130E+00 -1.619099773269E+00 1.171650060601E+00 1.422842895481E-02 1.045948072783E+00 -1.442766695079E+00 1.207672390320E+00 -2.827517069151E+00 -1.498163862077E-01 1.786557688638E-01 1.024869411531E+00 1.242754656326E+00 3.822853737271E+00 1.017887555627E+01
 -5.224196272177E+00 4.887969921079E-01 2.139342696255E+00 1.311622178693E+00 1.319255116467E+00 -8.180189493269E-01 4.751535179810E-01 -5.855932071037E-01 -4.262485279175E-01 1.466944039321E-01 -1.347664452441E+00 -1.411948000153E+00 -4.229886900816E-01 -2.473607777658E-01 1.979378763372E+00 -7.443983874489E-01 1.535204084882E+00 -4.361679265277E-01 -1.207769161620E+00 6.588614401834E-02 5.279507528640E-01 -1.381024542508E-01 6.408214692900E-01 6.165875016871E-01 -4.718641163021E-01 1.585427372583E+00 -6.605569307542E-01 -8.765472769693E-01 9.724918076087E-01 -8.181586463333E-01 1.583950969441E+00 3.033283173718E-01 1.146666823184E+00 -1.809638708917E+00 -3.520484233336E-02 8.106114331660E-01 -3.600706962073E-01 -9.676858791753E-01 1.736296545047E+00 1.064140597171E-01 -2.918258668807E-01 -1.275301059399E+00 4.997209288090E-01 4.460291734743E-02 2.173351668850E+00 7.601005021955E+00
 -5.823943750759E-01 -1.651853093553E-01 1.716658310853E+00 -1.737611162795E+00 -1.359643976322E+00 6.886724601316E-01 5.133142932284E-01 3.496159181289E-01 -7.236623240758E-01 -3.019841971511E-01 -1.750383568982E+00 1.053112150103E+00 7.958702087840E-02 -3.201223007854E+00 2.452837659220E+00 -4.100822341607E-01 2.147012974641E+00 1.191506965092E-01 -3.470002027073E+00 -2.204681035837E-02 7.806162517829E-01 2.875981348890E-01 -8.998657012683E-01 -8.000081702667E-01 -8.536352127688E-01 -1.316824879539E+00 -2.354115853200E+00 -4.659785288029E-01 1.540860616296E-01 -1.545944744808E-01 2.965055924948E+00 2.490766710139E+00 -2.824075676084E+00 -1.541249132667E-01 1.649902966312E+00 -5.861329696461E-01 2.375351116987E-01 2.870919889612E-01 1.018246802918E+00 1.126111150053E+00 2.980663355165E+00 -2.843544773114E+00 1.875986046235E+00 5.242309997497E-01 3.038412464728E+00 1.722407060930E-01 1.354751276368E+01
 1.473319587316E+00 -1.804178765821E+00 -2.958408387753E+00 7.018626279632E-01 2.152988572197E-01 -4.583392936131E-01 2.285780825128E-01 5.250320949072E-01 -3.271359974951E-01 -3.464037648265E+00 -2.630740352885E+00 2.878903246804E+00 2.917790095929E+00 4.318286765413E+00 -6.112800052042E-01 1.184885011379E+00 -3.852154439115E-01 1.454157951243E+00 4.040197562044E+00 -1.861495306340E+00 -1.089855170279E+00 2.769212615644E-01 3.454036950369E-01 -1.355482090862E+00 1.459930545235E+00 2.072347404864E-01 -1.140701403726E+01 -3.520282669270E+00 -1.817903773003E-01 -1.595858345291E+00 -7.826804843963E+00 -1.003709618459E+00 -4.541293913401E-01 1.944925593721E+00 -9.659244898319E-01 2.329604286570E+00 3.551651410450E-01 2.346961134177E-01 5.875115444042E-01 1.497649886545E-01 4.806431268427E-01 -3.197698487924E+00 -8.427650423861E-02 1.111047080910E+00 -1.037890536542E+00 -1.025755316996E-01 -1.873708024527E+00 1.459042106425E+01
 -1.560378055518E+00 1.935840876371E+00 -4.919752454052E-01 -1.091077168065E+00 -3.062549133304E-01 -4.561359720147E-01 -5.697843934557E-01 -1.330387512292E+00 -1.383695504676E+00 -2.150838273089E-01 -1.837052000814E+00 -1.293805771236E+00 -8.738755450271E-01 7.704760580818E-01 2.351990247953E+00 -9.416558765465E-01 1.929525330180E+00 -7.041314024623E-02 -1.703116116507E-02 -8.326655307742E-01 -8.350687069548E-02 9.155817141259E-01 -1.686520069176E-01 8.162413622289E-02 1.798440236212E+00 -3.096309441968E-01 -4.599362180090E-01 -2.869710635989E+00 1.715899851983E+00 -1.976206546073E+00 1.857449343920E+00 -3.048515184207E-01 1.536254729036E+00 -3.061821756029E+00 9.059325225369E-01 -4.085773298592E-01 4.827180562703E-01 2.671208386461E-01 2.960318091546E-01 7.590335524153E-03 -5.757197200007E-01 4.477393568952E-01 -1.065723166577E+00 -4.286066758640E-02 1.441530104669E+00 2.478748833172E+00 1.117323792023E+00 -4.376792626163E-01 8.090715997280E+00
 2.119701151711E+00 -2.065084120626E+00 1.374145542103E-01 1.184595638607E+00 -4.923188358877E-01 5.659075312820E-01 4.687775450465E-01 -1.132330272896E+00 7.676360446982E-01 -1.370253671915E+00 -2.174224699201E-01 4.567372201130E-01 5.133023538578E-01 3.898704259978E-01 3.023034427068E-01 1.128097355797E+00 -6.864239001025E-01 3.880852216312E-01 -1.481723727565E-01 -9.829698945615E-01 7.791631614233E-01 3.587397219616E-01 -2.643169399397E-02 4.979585050052E-01 7.127968234614E-02 -1.022581276968E+00 -2.103849500975E+00 -1.264535038501E+00 -1.782743069666E+00 -1.035995379737E+00 -1.861097324536E-02 -4.829063324821E+00 -3.477707164722E+00 4.262480292343E+00 -1.025326311004E+00 3.009730920593E+00 3.461370300750E-01 2.271693065779E-01 2.171586214870E-01 -5.874469937488E-01 1.326553925505E+00 -3.276016351425E+00 -1.288396724708E+00 -7.661323745251E-02 -7.899401766605E-01 -2.281214831909E+00 -6.996402634657E-01 8.533093954736E-01 3.933953624178E-02 1.430978948016E+01
 3.029317090741E+00 -2.651141039800E+00 1.281991337285E+00 5.286892848709E-01 -7.197059231865E-01 1.615689602014E+00 9.600147516842E-01 1.139376384665E+00 -7.224060353457E-01 -6.447572170513E-01 2.343184402163E+00 -8.222861537335E-01 2.921426932068E+00 -2.687049892227E+00 -6.416157790996E+00 1.284203843870E+00 -2.185688645871E+00 4.133390748057E-01 -2.081523256444E+00 2.046199968323E+00 5.205969002950E-01 5.406637749894E-01 -2.770747703159E-01 -2.837962279020E-01 -2.398216775769E+00 3.501037759867E-01 1.204743050282E+00 -1.796714605297E+00 -2.897657163073E+00 -4.658293420320E+00 2.913602301174E-01 -2.105583075650E+00 -3.402442153371E+00 -1.502906881547E+00 6.202466586858E-01 -3.221867562153E-01 2.701098947876E-01 1.451928762478E-01 -4.443886765599E-01 -3.020954146466E-02 3.847737265471E-01 5.568000143995E-01 -4.193997275336E-01 -1.110045156433E-01 -2.283324685928E+00 -2.093870231527E+00 -6.524469822363E-01 1.035875640463E+00 -1.183858163754E+00 7.326476429905E+00 1.559318571832E+01
 -1.981682769070E-01 1.440694155978E+00 7.338460617389E-01 1.873593855777E-01 3.023720473972E-01 -5.561605484567E-01 -7.342626674832E-01 9.807023455035E-01 -1.353220528096E+00 4.742030810637E-01 2.422416090871E+00 9.173090007914E-01 -1.855538463907E-01 -8.245639375456E-01 -2.624647316002E+00 -3.735762570290E-02 -6.035528375383E-01 -9.861150362010E-01 1.124013020580E+00 8.560600840096E-02 3.204345984162E-01 2.991588103415E-01 9.221955810484E-01 1.200948407994E+00 5.632646049970E-01 -6.118795398433E-01 -6.972704588375E-01 6.150684762196E-01 -1.008788340678E+00 -1.697523154862E-01 1.364387146254E-01 -1.744772583043E-02 -1.896375336007E+00 -5.331729652308E+00 -2.553987921792E+00 4.974274342525E+00 -8.705890922061E-01 4.574751001725E-01 -5.959562694077E-01 2.740309762660E-02 -2.371361759460E+00 2.389122551983E+00 -9.654839640023E-01 -1.745497535008E+00 -2.052923881028E+00 -2.194282280220E+00 -4.300526547798E+00 1.017481594837E+00 -1.438579236125E+00 4.306329637986E-01 1.688668806307E+00 1.129709990582E+01
 2.428963712938E+00 -4.499321115876E+00 -2.113758583728E+00 4.093951338035E-01 8.539438422504E-01 -9.958185467202E-01 -2.266924391825E+00 6.120255108788E-01 1.789156296964E-01 1.664819095177E+00 2.057154871028E+00 -1.243789795938E+00 -8.843036562485E-03 1.399139078210E+00 -4.356821666256E+00 -2.101723483072E-01 -5.099166421360E-01 -9.559343178968E-01 2.201129283160E+00 6.233149254626E-01 -8.283109059341E-01 -1.656174513744E-01 -2.120030651717E-01 -1.660986512660E-01 -8.253408568674E-01 1.397011169990E+00 2.026537468249E+00 -1.172387442089E-01 -1.178395774285E+00 8.288293952747E-01 -2.030452033306E+00 1.271633096642E-01 -1.223375297951E+00 -3.657688314108E+00 -3.096904253612E+00 2.119993151889E+00 3.141889553016E-01 -1.631261788396E-01 -6.376654474740E-01 -9.977382394871E-02 -9.106237743111E-01 4.006237048850E+00 2.507568184364E-01 -1.151164907765E+00 -2.576481019138E+00 -3.161970474144E+00 -6.340142486358E+00 9.583822426297E-02 -1.621043023313E+00 -3.705539680392E-01 9.210440548291E-01 5.752819513502E+00 1.119634105535E+01
 9.888581758699E-01 -1.815719927822E+00 -3.786331701522E+00 2.249680220170E+00 1.704151099275E+00 -1.703260357568E+00 8.618189130054E-01 -1.808532772071E-01 1.135671000935E+00 1.407714617936E+00 -1.242492224885E-01 -1.660461823290E+00 -1.266654010799E+00 1.244417156332E+00 1.941728579878E-01 3.054291354434E-01 -1.638360652216E+00 2.945557046096E-02 -1.209427481092E-01 -1.352350628944E+00 -5.854069438377E-01 -7.470000039983E-01 5.752072710862E-01 -3.675587635513E-01 -1.959319251382E+00 4.935866556827E-01 1.795603135774E+00 -1.787104444062E+00 -2.176706233560E-01 -1.585387795095E+00 1.957519279643E+00 3.113286024126E+00 -5.133586180160E+00 2.150342420215E+00 1.003533193056E+00 -5.740644635835E+00 -1.205064175679E-01 3.594750550148E-01 2.664568780440E-01 8.038068132439E-02 1.916293873254E-01 2.041889007016E+00 6.644473292971E-01 1.336656084664E+00 -8.384989448147E-01 -9.015531550244E-01 -2.892497710117E+00 2.539397765435E+00 2.262171815259E+00 -4.916225301520E+00 -1.277751152181E+00 -3.284814039520E+00 4.401939613963E+00 1.786257347062E+01