 Job started on host DESKTOP-5CQNRD0
 at Sun Sep  1 15:24:15 2019

 +-------------------------------------------------+
 |                                                 |
 |      CCC   AA    SSS  TTTTT  EEEEE  PPPP        |
 |     C     A  A  S       T    E      P   P       |
 |     C     AAAA   SS     T    EEE    PPPP        |
 |     C     A  A     S    T    E      P           |
 |      CCC  A  A  SSS     T    EEEEE  P           |
 |                                                 |
 +-------------------------------------------------+
 |                                                 |
 | Materials Studio CASTEP version 2017            |
 | Ab Initio Total Energy Program                  |
 |                                                 |
 | Authors:                                        |
 | M. Segall, M. Probert, C. Pickard, P. Hasnip,   |
 | S. Clark, K. Refson, J. R. Yates, M. Payne      |
 |                                                 |
 | Contributors:                                   |
 | P. Lindan, P. Haynes, J. White, V. Milman,      |
 | N. Govind, M. Gibson, P. Tulip, V. Cocula,      |
 | B. Montanari, D. Quigley, M. Glover,            |
 | L. Bernasconi, A. Perlov, M. Plummer,           |
 | E. McNellis, J. Meyer, J. Gale, D. Jochym       |
 | J. Aarons, B. Walker, R. Gillen, D. Jones       |
 | T. Green, I. J. Bush, C. J. Armstrong,          |
 | E. J. Higgins, E. L. Brown, M. S. McFly         |
 |                                                 |
 | Copyright (c) 2000 - 2016                       |
 |                                                 |
 | Please cite                                     |
 |                                                 |
 |     "First principles methods using CASTEP"     |
 |                                                 |
 |         Zeitschrift fuer Kristallographie       |
 |           220(5-6) pp. 567-570 (2005)           |
 |                                                 |
 | S. J. Clark, M. D. Segall, C. J. Pickard,       |
 | P. J. Hasnip, M. J. Probert, K. Refson,         |
 | M. C. Payne                                     |
 |                                                 |
 |       in all publications arising from          |
 |              your use of CASTEP                 |
 |                                                 |
 +-------------------------------------------------+
 
 
 This version was compiled for x86_64-windows-msvc2008 on May 05 2016
 Intel(R) Math Kernel Library Version 11.1.2 
 Fundamental constants values: CODATA 2010
 
License checkout of MS_castep successful
 

 Warning in parameters_validate: current value of 
   ELEC_EIGENVALUE_TOL = 0.100000E-08eV
   is too large to achieve desired level of convergence of response properties.
   This may cause convergence failures and/or inaccuracy of results
   of PHONON calculations - recommend you use a smaller value, e.g. 
   ELEC_EIGENVALUE_TOL = 0.500000E-10eV
 +-------------------------------------------------+
 |                                                 |
 |  D D D D    F F F F F  P P P P     T T T T T    |
 |  D       D  F          P       P       T        |
 |  D       D  F F F F    P P P P         T        |
 |  D       D  F          P               T        |
 |  D D D D    F          P               T        |
 |                                                 |
 +-------------------------------------------------+
 |                                                 |
 | Welcome to Castep Linear Response (DFPT)        |
 |                                                 |
 | Copyright (c) 2006 - 2016                       |
 |                                                 |
 | Please cite the following publications in all   |
 | work arising from your use of CASTEP LR.        |
 |                                                 |
 | K. Refson, S. J. Clark and P. R. Tulip          |
 | Variational density functional perturbation     |
 | theory for dielectrics and lattice dynamics     |
 | Phys. Rev. B 73(15), 155114 (2006)              |
 +-------------------------------------------------+
 
Reading continuation data from model file Ge_PhonDisp.check
 
 Pseudo atomic calculation performed for Ge 4s2 4p2
 
 Converged in 25 iterations to a total energy of -102.3132 eV
 
Initialising basis set for model.
Reinitialising basis set for current geometry.
Continuing from previous run with ground state wavefunction.
Continuing from previous run with ground state density.
 Warning: attempt to modify FINE_GRID_SCALE not allowed
 WARNING: phonon fine_frequency data in check file HAS BEEN DISCARDED.
          because PHONON_FINE_KPOINT_LIST changed on continuation.
 WARNING: phonon thermal ADP data in check file HAS BEEN DISCARDED.
 Calculation parallelised over 2 processes.
 Data is distributed by k-point(2-way)

 ************************************ Title ************************************
 CASTEP calculation from Materials Studio

 ***************************** General Parameters ******************************
  
 output verbosity                               : normal  (1)
 continuing from                                : Ge_PhonDisp.check
 write checkpoint data to                       : Ge_PhonDisp.check
 type of calculation                            : phonon calculation
 stress calculation                             : off
 density difference calculation                 : off
 electron localisation func (ELF) calculation   : off
 Hirshfeld analysis                             : off
 unlimited duration calculation
 timing information                             : on
 memory usage estimate                          : on
 write final potential to formatted file        : off
 write final density to formatted file          : off
 write BibTeX reference list                    : on
 write OTFG pseudopotential files               : on
 checkpoint writing                             : both castep_bin and check files
  
 output         length unit                     : A
 output           mass unit                     : amu
 output           time unit                     : ps
 output         charge unit                     : e
 output           spin unit                     : hbar/2
 output         energy unit                     : eV
 output          force unit                     : eV/A
 output       velocity unit                     : A/ps
 output       pressure unit                     : GPa
 output     inv_length unit                     : 1/A
 output      frequency unit                     : cm-1
 output force constant unit                     : eV/A**2
 output         volume unit                     : A**3
 output   IR intensity unit                     : (D/A)**2/amu
 output         dipole unit                     : D
 output         efield unit                     : eV/A/e
 output        entropy unit                     : J/mol/K
  
 wavefunctions paging                           : none
 random number generator seed                   :  152234988
 data distribution                              : optimal for this architecture
 optimization strategy                          : balance speed and memory

 *********************** Exchange-Correlation Parameters ***********************
  
 using functional                               : Local Density Approximation
 relativistic treatment                         : Koelling-Harmon
 DFT+D: Semi-empirical dispersion correction    : off

 ************************* Pseudopotential Parameters **************************
  
 pseudopotential representation                 : reciprocal space
 <beta|phi> representation                      : reciprocal space
 spin-orbit coupling                            : off

 **************************** Basis Set Parameters *****************************
  
 plane wave basis set cut-off                   :   440.0000   eV
 size of standard grid                          :     1.5000
 size of   fine   grid                          :     1.5000
 size of   fine   gmax                          :    16.1197   1/A
 largest prime factor in FFT                    :          5
 finite basis set correction                    : none

 **************************** Electronic Parameters ****************************
  
 number of  electrons                           :  8.000    
 net charge of system                           :  0.000    
 treating system as non-spin-polarized
 number of bands                                :          4

 ********************* Electronic Minimization Parameters **********************
  
 Method: Treating system as non-metallic,
         and number of  SD  steps               :          1
         and number of  CG  steps               :          4
  
 total energy / atom convergence tol.           : 0.1000E-09   eV
 eigen-energy convergence tolerance             : 0.1000E-08   eV
 max force / atom convergence tol.              : ignored
 convergence tolerance window                   :          3   cycles
 max. number of SCF cycles                      :        100
 periodic dipole correction                     : NONE

 ************************** Density Mixing Parameters **************************
  
 density-mixing scheme                          : Pulay
 max. length of mixing history                  :         20
 charge density mixing amplitude                : 0.5000    
 cut-off energy for mixing                      :  440.0       eV
 charge density mixing g-vector                 :  1.500       1/A

 ****************************** Phonon Parameters ******************************
  
 phonon calculation method                      : linear response
 phonon convergence tolerance                   : 0.1000E-04   eV/A**2
 max. number of phonon cycles                   :        100
 max. number of phonon CG steps                 :          0
 convergence tolerance window                   :          2   cycles
 DFPT solver method                             : AllBands (Gonze variational method)
 preconditioning scheme                         : TPA     
 fine phonon calculation method                 : interpolation
 non-periodic force constant method             : Weighted cumulant sum
 force constant cutoff scale factor             :     1.0000
 LO/TO splitting term                           : included
 acoustic phonon sum rule                       : correct D(q) in recip-space
 Born effective charges                         : calculated
 Born charge sum rule                           : explicitly enforced
 Raman intensities                              : not calculated
 phonon k-points                                : use reduced set
 phonon DOS                                     : not calculated
 backups results every                          :        900   seconds
 band convergence tolerance                     : 0.1000E-08   eV

 *******************************************************************************
  
 
                           -------------------------------
                                      Unit Cell
                           -------------------------------
        Real Lattice(A)                      Reciprocal Lattice(1/A)
   0.0000000   2.7958833   2.7958833       -1.1236494   1.1236494   1.1236494
   2.7958833   0.0000000   2.7958833        1.1236494  -1.1236494   1.1236494
   2.7958833   2.7958833  -0.0000000        1.1236494   1.1236494  -1.1236494
 
                       Lattice parameters(A)       Cell Angles
                    a =    3.953976          alpha =   60.000000
                    b =    3.953976          beta  =   60.000000
                    c =    3.953976          gamma =   60.000000
 
                       Current cell volume =   43.710637       A**3
 
                           -------------------------------
                                     Cell Contents
                           -------------------------------
                         Total number of ions in cell =    2
                      Total number of species in cell =    1
                        Max number of any one species =    2
 
            xxxxxxxxxxxxxxxxxxxxxxxxxxxxxxxxxxxxxxxxxxxxxxxxxxxxxxxxxxxx
            x  Element    Atom        Fractional coordinates of atoms  x
            x            Number           u          v          w      x
            x----------------------------------------------------------x
            x  Ge           1         0.000000   0.000000   0.000000   x 
            x  Ge           2         0.250000   1.250000   0.250000   x 
            xxxxxxxxxxxxxxxxxxxxxxxxxxxxxxxxxxxxxxxxxxxxxxxxxxxxxxxxxxxx
 
 
                         No user defined ionic velocities
 
                           -------------------------------
                                   Details of Species
                           -------------------------------
 
                               Mass of species in AMU
                                    Ge   72.5899963
 
                          Electric Quadrupole Moment (Barn)
                                    Ge   -0.1730000 Isotope 73
 
                          Files used for pseudopotentials:
                                    Ge Ge_00_OP.recpot
 
                           -------------------------------
                              k-Points For BZ Sampling
                           -------------------------------
                       MP grid size for SCF calculation is  3  3  3
                            with an offset of   0.000  0.000  0.000
                       Number of kpoints used =             4
 
                           -------------------------------
                               Symmetry and Constraints
                           -------------------------------
 
                      Maximum deviation from symmetry = 0.200000E-14     ANG
 
                      Number of symmetry operations   =          48
         There are no ionic constraints specified or generated for this cell
                      Point group of crystal =    32: Oh, m-3m, 4/m -3 2/m
                      Space group of crystal =   227: Fd-3m, F 4d 2 3 -1d
 
             Set iprint > 1 for details on symmetry rotations/translations
 
                         Centre of mass is NOT constrained
 
                         Number of cell constraints= 5
                         Cell constraints are:  1 1 1 0 0 0
 
                         External pressure/stress (GPa)
                          0.00000   0.00000   0.00000
                                    0.00000   0.00000
                                              0.00000
 Restarting Phonon calculation: Frequencies for q-points 1 to      16 recovered from .check file.
 
 ==============================================================================
 +                           Vibrational Frequencies                          +
 +                           -----------------------                          +
 +                                                                            +
 + Performing frequency calculation at  40 wavevectors (q-pts)                +
 + ========================================================================== +
 +                                                                            +
 + -------------------------------------------------------------------------- +
 +  q-pt=    1 (  0.500000  0.250000  0.750000)     0.0487804878              +
 + -------------------------------------------------------------------------- +
 +  Acoustic sum rule correction <   0.017146 cm-1 applied                    +
 +     N      Frequency irrep.                                                + 
 +                (cm-1)                                                      + 
 +                                                                            +
 +     1     143.008819   a                                                   + 
 +     2     143.008819   a                                                   + 
 +     3     207.469412   b                                                   + 
 +     4     207.469412   b                                                   + 
 +     5     268.640793   a                                                   + 
 +     6     268.640793   a                                                   + 
 + .......................................................................... +
 +        Character table from group theory analysis of eigenvectors          +
 +                           Point Group =  32, Oh                            +
 + .......................................................................... +
 +  Rep  Mul |    E   2   2   m  -4                                           +
 +           | --------------------                                           +
 + a       2 |    2   0   0   0  -1                                           +
 + b       1 |    2   0   0   0   1                                           +
 + -------------------------------------------------------------------------- +
 +  q-pt=    2 (  0.500000  0.281250  0.718750)     0.0243902439              +
 + -------------------------------------------------------------------------- +
 +  Acoustic sum rule correction <   0.013410 cm-1 applied                    +
 +     N      Frequency irrep.                                                + 
 +                (cm-1)                                                      + 
 +                                                                            +
 +     1     135.593024   a                                                   + 
 +     2     144.738918   b                                                   + 
 +     3     200.489894   b                                                   + 
 +     4     215.306187   a                                                   + 
 +     5     266.709188   b                                                   + 
 +     6     271.279845   a                                                   + 
 + .......................................................................... +
 +        Character table from group theory analysis of eigenvectors          +
 +                           Point Group =  32, Oh                            +
 + .......................................................................... +
 +  Rep  Mul |    E   2                                                       +
 +           | --------                                                       +
 + a       3 |    1  -1                                                       +
 + b       3 |    1   1                                                       +
 + -------------------------------------------------------------------------- +
 +  q-pt=    3 (  0.500000  0.312500  0.687500)     0.0243902439              +
 + -------------------------------------------------------------------------- +
 +  Acoustic sum rule correction <   0.010762 cm-1 applied                    +
 +     N      Frequency irrep.                                                + 
 +                (cm-1)                                                      + 
 +                                                                            +
 +     1     125.115237   a                                                   + 
 +     2     141.749484   b                                                   + 
 +     3     196.920120   b                                                   + 
 +     4     221.010425   a                                                   + 
 +     5     266.007179   b                                                   + 
 +     6     274.184867   a                                                   + 
 + .......................................................................... +
 +        Character table from group theory analysis of eigenvectors          +
 +                           Point Group =  32, Oh                            +
 + .......................................................................... +
 +  Rep  Mul |    E   2                                                       +
 +           | --------                                                       +
 + a       3 |    1  -1                                                       +
 + b       3 |    1   1                                                       +
 + -------------------------------------------------------------------------- +
 +  q-pt=    4 (  0.500000  0.343750  0.656250)     0.0243902439              +
 + -------------------------------------------------------------------------- +
 +  Acoustic sum rule correction <   0.012454 cm-1 applied                    +
 +     N      Frequency irrep.                                                + 
 +                (cm-1)                                                      + 
 +                                                                            +
 +     1     114.185817   a                                                   + 
 +     2     136.718407   b                                                   + 
 +     3     196.455991   b                                                   + 
 +     4     224.898262   a                                                   + 
 +     5     268.109553   b                                                   + 
 +     6     276.530145   a                                                   + 
 + .......................................................................... +
 +        Character table from group theory analysis of eigenvectors          +
 +                           Point Group =  32, Oh                            +
 + .......................................................................... +
 +  Rep  Mul |    E   2                                                       +
 +           | --------                                                       +
 + a       3 |    1  -1                                                       +
 + b       3 |    1   1                                                       +
 + -------------------------------------------------------------------------- +
 +  q-pt=    5 (  0.500000  0.375000  0.625000)     0.0243902439              +
 + -------------------------------------------------------------------------- +
 +  Acoustic sum rule correction <   0.013754 cm-1 applied                    +
 +     N      Frequency irrep.                                                + 
 +                (cm-1)                                                      + 
 +                                                                            +
 +     1     103.221631   a                                                   + 
 +     2     128.364233   b                                                   + 
 +     3     199.549408   b                                                   + 
 +     4     228.488175   a                                                   + 
 +     5     274.161918   b                                                   + 
 +     6     278.599425   a                                                   + 
 + .......................................................................... +
 +        Character table from group theory analysis of eigenvectors          +
 +                           Point Group =  32, Oh                            +
 + .......................................................................... +
 +  Rep  Mul |    E   2                                                       +
 +           | --------                                                       +
 + a       3 |    1  -1                                                       +
 + b       3 |    1   1                                                       +
 + -------------------------------------------------------------------------- +
 +  q-pt=    6 (  0.500000  0.406250  0.593750)     0.0243902439              +
 + -------------------------------------------------------------------------- +
 +  Acoustic sum rule correction <   0.014226 cm-1 applied                    +
 +     N      Frequency irrep.                                                + 
 +                (cm-1)                                                      + 
 +                                                                            +
 +     1      90.827947   a                                                   + 
 +     2     113.068553   b                                                   + 
 +     3     207.201989   b                                                   + 
 +     4     231.893343   a                                                   + 
 +     5     281.936165   a                                                   + 
 +     6     283.060965   b                                                   + 
 + .......................................................................... +
 +        Character table from group theory analysis of eigenvectors          +
 +                           Point Group =  32, Oh                            +
 + .......................................................................... +
 +  Rep  Mul |    E   2                                                       +
 +           | --------                                                       +
 + a       3 |    1  -1                                                       +
 + b       3 |    1   1                                                       +
 + -------------------------------------------------------------------------- +
 +  q-pt=    7 (  0.500000  0.437500  0.562500)     0.0243902439              +
 + -------------------------------------------------------------------------- +
 +  Acoustic sum rule correction <   0.013966 cm-1 applied                    +
 +     N      Frequency irrep.                                                + 
 +                (cm-1)                                                      + 
 +                                                                            +
 +     1      76.026956   a                                                   + 
 +     2      90.563626   b                                                   + 
 +     3     217.469118   b                                                   + 
 +     4     232.451226   a                                                   + 
 +     5     288.629402   a                                                   + 
 +     6     292.008863   b                                                   + 
 + .......................................................................... +
 +        Character table from group theory analysis of eigenvectors          +
 +                           Point Group =  32, Oh                            +
 + .......................................................................... +
 +  Rep  Mul |    E   2                                                       +
 +           | --------                                                       +
 + a       3 |    1  -1                                                       +
 + b       3 |    1   1                                                       +
 + -------------------------------------------------------------------------- +
 +  q-pt=    8 (  0.500000  0.468750  0.531250)     0.0243902439              +
 + -------------------------------------------------------------------------- +
 +  Acoustic sum rule correction <   0.013572 cm-1 applied                    +
 +     N      Frequency irrep.                                                + 
 +                (cm-1)                                                      + 
 +                                                                            +
 +     1      61.234481   a                                                   + 
 +     2      66.388766   b                                                   + 
 +     3     226.022896   b                                                   + 
 +     4     229.605013   a                                                   + 
 +     5     296.906617   a                                                   + 
 +     6     298.402312   b                                                   + 
 + .......................................................................... +
 +        Character table from group theory analysis of eigenvectors          +
 +                           Point Group =  32, Oh                            +
 + .......................................................................... +
 +  Rep  Mul |    E   2                                                       +
 +           | --------                                                       +
 + a       3 |    1  -1                                                       +
 + b       3 |    1   1                                                       +
 + -------------------------------------------------------------------------- +
 +  q-pt=    9 (  0.500000  0.500000  0.500000)     0.0243902439              +
 + -------------------------------------------------------------------------- +
 +  Acoustic sum rule correction <   0.013409 cm-1 applied                    +
 +     N      Frequency irrep.                                                + 
 +                (cm-1)                                                      + 
 +                                                                            +
 +     1      54.259822   a                                                   + 
 +     2      54.259822   a                                                   + 
 +     3     227.748833   b                                                   + 
 +     4     229.294669   c                                                   + 
 +     5     300.699593   d                                                   + 
 +     6     300.699593   d                                                   + 
 + .......................................................................... +
 +        Character table from group theory analysis of eigenvectors          +
 +                           Point Group =  32, Oh                            +
 + .......................................................................... +
 +  Rep  Mul |    E   3   2   I  -3   m                                       +
 +           | ------------------------                                       +
 + a       1 |    2  -1   0  -1   1   0                                       +
 + b       1 |    1   1  -1  -1  -1   1                                       +
 + c       1 |    1   1   1   1   1   1                                       +
 + d       1 |    2  -1   0   1  -1   0                                       +
 + -------------------------------------------------------------------------- +
 +  q-pt=   10 (  0.450000  0.450000  0.450000)     0.0243902439              +
 + -------------------------------------------------------------------------- +
 +  Acoustic sum rule correction <   0.009944 cm-1 applied                    +
 +     N      Frequency irrep.                                                + 
 +                (cm-1)                                                      + 
 +                                                                            +
 +     1      53.458075   a                                                   + 
 +     2      53.458075   a                                                   + 
 +     3     207.158755   b                                                   + 
 +     4     250.757520   b                                                   + 
 +     5     299.779758   a                                                   + 
 +     6     299.779758   a                                                   + 
 + .......................................................................... +
 +        Character table from group theory analysis of eigenvectors          +
 +                           Point Group =  32, Oh                            +
 + .......................................................................... +
 +  Rep  Mul |    E   3   m                                                   +
 +           | ------------                                                   +
 + a       2 |    2  -1   0                                                   +
 + b       2 |    1   1   1                                                   +
 + -------------------------------------------------------------------------- +
 +  q-pt=   11 (  0.400000  0.400000  0.400000)     0.0243902439              +
 + -------------------------------------------------------------------------- +
 +  Acoustic sum rule correction <   0.010266 cm-1 applied                    +
 +     N      Frequency irrep.                                                + 
 +                (cm-1)                                                      + 
 +                                                                            +
 +     1      52.204770   a                                                   + 
 +     2      52.204770   a                                                   + 
 +     3     189.411479   b                                                   + 
 +     4     269.301551   b                                                   + 
 +     5     297.586023   a                                                   + 
 +     6     297.586023   a                                                   + 
 + .......................................................................... +
 +        Character table from group theory analysis of eigenvectors          +
 +                           Point Group =  32, Oh                            +
 + .......................................................................... +
 +  Rep  Mul |    E   3   m                                                   +
 +           | ------------                                                   +
 + a       2 |    2  -1   0                                                   +
 + b       2 |    1   1   1                                                   +
 + -------------------------------------------------------------------------- +
 +  q-pt=   12 (  0.350000  0.350000  0.350000)     0.0243902439              +
 + -------------------------------------------------------------------------- +
 +  Acoustic sum rule correction <   0.014156 cm-1 applied                    +
 +     N      Frequency irrep.                                                + 
 +                (cm-1)                                                      + 
 +                                                                            +
 +     1      53.008580   a                                                   + 
 +     2      53.008580   a                                                   + 
 +     3     174.712724   b                                                   + 
 +     4     280.569854   b                                                   + 
 +     5     295.507007   a                                                   + 
 +     6     295.507007   a                                                   + 
 + .......................................................................... +
 +        Character table from group theory analysis of eigenvectors          +
 +                           Point Group =  32, Oh                            +
 + .......................................................................... +
 +  Rep  Mul |    E   3   m                                                   +
 +           | ------------                                                   +
 + a       2 |    2  -1   0                                                   +
 + b       2 |    1   1   1                                                   +
 + -------------------------------------------------------------------------- +
 +  q-pt=   13 (  0.300000  0.300000  0.300000)     0.0243902439              +
 + -------------------------------------------------------------------------- +
 +  Acoustic sum rule correction <   0.021350 cm-1 applied                    +
 +     N      Frequency irrep.                                                + 
 +                (cm-1)                                                      + 
 +                                                                            +
 +     1      56.865384   a                                                   + 
 +     2      56.865384   a                                                   + 
 +     3     160.293428   b                                                   + 
 +     4     284.228741   b                                                   + 
 +     5     295.039784   a                                                   + 
 +     6     295.039784   a                                                   + 
 + .......................................................................... +
 +        Character table from group theory analysis of eigenvectors          +
 +                           Point Group =  32, Oh                            +
 + .......................................................................... +
 +  Rep  Mul |    E   3   m                                                   +
 +           | ------------                                                   +
 + a       2 |    2  -1   0                                                   +
 + b       2 |    1   1   1                                                   +
 + -------------------------------------------------------------------------- +
 +  q-pt=   14 (  0.250000  0.250000  0.250000)     0.0243902439              +
 + -------------------------------------------------------------------------- +
 +  Acoustic sum rule correction <   0.027659 cm-1 applied                    +
 +     N      Frequency irrep.                                                + 
 +                (cm-1)                                                      + 
 +                                                                            +
 +     1      61.324772   a                                                   + 
 +     2      61.324772   a                                                   + 
 +     3     143.544255   b                                                   + 
 +     4     283.941485   b                                                   + 
 +     5     297.103716   a                                                   + 
 +     6     297.103716   a                                                   + 
 + .......................................................................... +
 +        Character table from group theory analysis of eigenvectors          +
 +                           Point Group =  32, Oh                            +
 + .......................................................................... +
 +  Rep  Mul |    E   3   m                                                   +
 +           | ------------                                                   +
 + a       2 |    2  -1   0                                                   +
 + b       2 |    1   1   1                                                   +
 + -------------------------------------------------------------------------- +
 +  q-pt=   15 (  0.200000  0.200000  0.200000)     0.0243902439              +
 + -------------------------------------------------------------------------- +
 +  Acoustic sum rule correction <   0.034555 cm-1 applied                    +
 +     N      Frequency irrep.                                                + 
 +                (cm-1)                                                      + 
 +                                                                            +
 +     1      62.314524   a                                                   + 
 +     2      62.314524   a                                                   + 
 +     3     123.679977   b                                                   + 
 +     4     285.556920   b                                                   + 
 +     5     301.683652   a                                                   + 
 +     6     301.683652   a                                                   + 
 + .......................................................................... +
 +        Character table from group theory analysis of eigenvectors          +
 +                           Point Group =  32, Oh                            +
 + .......................................................................... +
 +  Rep  Mul |    E   3   m                                                   +
 +           | ------------                                                   +
 + a       2 |    2  -1   0                                                   +
 + b       2 |    1   1   1                                                   +
 + -------------------------------------------------------------------------- +
 +  q-pt=   16 (  0.150000  0.150000  0.150000)     0.0243902439              +
 + -------------------------------------------------------------------------- +
 +  Acoustic sum rule correction <   0.044898 cm-1 applied                    +
 +     N      Frequency irrep.                                                + 
 +                (cm-1)                                                      + 
 +                                                                            +
 +     1      56.698597   a                                                   + 
 +     2      56.698597   a                                                   + 
 +     3     101.988620   b                                                   + 
 +     4     292.997449   b                                                   + 
 +     5     307.849142   a                                                   + 
 +     6     307.849142   a                                                   + 
 + .......................................................................... +
 +        Character table from group theory analysis of eigenvectors          +
 +                           Point Group =  32, Oh                            +
 + .......................................................................... +
 +  Rep  Mul |    E   3   m                                                   +
 +           | ------------                                                   +
 + a       2 |    2  -1   0                                                   +
 + b       2 |    1   1   1                                                   +
 + -------------------------------------------------------------------------- +
 +  q-pt=   17 (  0.100000  0.100000  0.100000)     0.0243902439              +
 + -------------------------------------------------------------------------- +
 +  Acoustic sum rule correction <   0.065429 cm-1 applied                    +
 +     N      Frequency irrep.                                                + 
 +                (cm-1)                                                      + 
 +                                                                            +
 +     1      43.410056   a                                                   + 
 +     2      43.410056   a                                                   + 
 +     3      81.292907   b                                                   + 
 +     4     304.950558   b                                                   + 
 +     5     314.056843   a                                                   + 
 +     6     314.056843   a                                                   + 
 + .......................................................................... +
 +        Character table from group theory analysis of eigenvectors          +
 +                           Point Group =  32, Oh                            +
 + .......................................................................... +
 +  Rep  Mul |    E   3   m                                                   +
 +           | ------------                                                   +
 + a       2 |    2  -1   0                                                   +
 + b       2 |    1   1   1                                                   +
 + -------------------------------------------------------------------------- +
 +  q-pt=   18 (  0.050000  0.050000  0.050000)     0.0243902439              +
 + -------------------------------------------------------------------------- +
 +  Acoustic sum rule correction <   0.128300 cm-1 applied                    +
 +     N      Frequency irrep.                                                + 
 +                (cm-1)                                                      + 
 +                                                                            +
 +     1      23.568566   a                                                   + 
 +     2      23.568566   a                                                   + 
 +     3      65.535701   b                                                   + 
 +     4     315.915116   b                                                   + 
 +     5     318.635079   a                                                   + 
 +     6     318.635079   a                                                   + 
 + .......................................................................... +
 +        Character table from group theory analysis of eigenvectors          +
 +                           Point Group =  32, Oh                            +
 + .......................................................................... +
 +  Rep  Mul |    E   3   m                                                   +
 +           | ------------                                                   +
 + a       2 |    2  -1   0                                                   +
 + b       2 |    1   1   1                                                   +
 + -------------------------------------------------------------------------- +
 +  q-pt=   19 (  0.000000  0.000000  0.000000)     0.0243902439              +
 +  q->0 along ( -0.577350 -0.577350 -0.577350)                               +
 + -------------------------------------------------------------------------- +
 +  Acoustic sum rule correction <   2.463145 cm-1 applied                    +
 +     N      Frequency irrep.    ir intensity active            raman active + 
 +                (cm-1)         ((D/A)**2/amu)                               + 
 +                                                                            +
 +     1      -0.016599   a          0.0000000  N                       N     + 
 +     2      -0.016599   a          0.0000000  N                       N     + 
 +     3      -0.016599   a          0.0000000  N                       N     + 
 +     4     320.317220   b          0.0000000  N                       Y     + 
 +     5     320.317220   b          0.0000000  N                       Y     + 
 +     6     320.317220   b          0.0000000  N                       Y     + 
 + .......................................................................... +
 +        Character table from group theory analysis of eigenvectors          +
 +                           Point Group =  32, Oh                            +
 + (Due to LO/TO splitting this character table may not contain some symmetry +
 +  operations of the full crystallographic point group.  Additional          +
 +  representations may be also be present corresponding to split LO modes.   +
 +  A conventional analysis can be generated by specifying an additional null +
 +  (all zero) field direction or one along any unique crystallographic axis  +
 +  in %BLOCK PHONON_GAMMA_DIRECTIONS in <seedname>.cell.)                    +
 + .......................................................................... +
 +  Rep  Mul |    E   3  2'   I  -3 m_v                                       +
 +           | ------------------------                                       +
 + a Tu    1 |    3   0  -1  -3   0   1                                       +
 + b Tg    1 |    3   0   1   3   0   1                                       +
 + -------------------------------------------------------------------------- +
 +  q-pt=   19 (  0.000000  0.000000  0.000000)     0.0243902439              +
 +  q->0 along (  0.707107  0.000000  0.707107)                               +
 + -------------------------------------------------------------------------- +
 +  Acoustic sum rule correction <   2.463145 cm-1 applied                    +
 +     N      Frequency irrep.    ir intensity active            raman active + 
 +                (cm-1)         ((D/A)**2/amu)                               + 
 +                                                                            +
 +     1      -0.016599   a          0.0000000  N                       N     + 
 +     2      -0.016599   a          0.0000000  N                       N     + 
 +     3      -0.016599   a          0.0000000  N                       N     + 
 +     4     320.317220   b          0.0000000  N                       Y     + 
 +     5     320.317220   b          0.0000000  N                       Y     + 
 +     6     320.317220   b          0.0000000  N                       Y     + 
 + .......................................................................... +
 +        Character table from group theory analysis of eigenvectors          +
 +                           Point Group =  32, Oh                            +
 + (Due to LO/TO splitting this character table may not contain some symmetry +
 +  operations of the full crystallographic point group.  Additional          +
 +  representations may be also be present corresponding to split LO modes.   +
 +  A conventional analysis can be generated by specifying an additional null +
 +  (all zero) field direction or one along any unique crystallographic axis  +
 +  in %BLOCK PHONON_GAMMA_DIRECTIONS in <seedname>.cell.)                    +
 + .......................................................................... +
 +  Rep  Mul |    E  2'   2   4  2"   I m_v m_h  -4 m_v                       +
 +           | ----------------------------------------                       +
 + a Tu    1 |    3  -1  -1   1  -1  -3   1   1  -1   1                       +
 + b Tg    1 |    3  -1  -1  -1   1   3  -1  -1  -1   1                       +
 + -------------------------------------------------------------------------- +
 +  q-pt=   20 (  0.041667  0.000000  0.041667)     0.0243902439              +
 + -------------------------------------------------------------------------- +
 +  Acoustic sum rule correction <   0.124839 cm-1 applied                    +
 +     N      Frequency irrep.                                                + 
 +                (cm-1)                                                      + 
 +                                                                            +
 +     1      24.665498   a                                                   + 
 +     2      24.665498   a                                                   + 
 +     3      63.832700   b                                                   + 
 +     4     317.518104   c                                                   + 
 +     5     318.082795   a                                                   + 
 +     6     318.082795   a                                                   + 
 + .......................................................................... +
 +        Character table from group theory analysis of eigenvectors          +
 +                           Point Group =  32, Oh                            +
 + .......................................................................... +
 +  Rep  Mul |    E   2   4   m   m                                           +
 +           | --------------------                                           +
 + a       2 |    2  -2   0   0   0                                           +
 + b       1 |    1   1   1   1   1                                           +
 + c       1 |    1   1  -1  -1   1                                           +
 + -------------------------------------------------------------------------- +
 +  q-pt=   21 (  0.083333  0.000000  0.083333)     0.0243902439              +
 + -------------------------------------------------------------------------- +
 +  Acoustic sum rule correction <   0.064802 cm-1 applied                    +
 +     N      Frequency irrep.                                                + 
 +                (cm-1)                                                      + 
 +                                                                            +
 +     1      47.316418   a                                                   + 
 +     2      47.316418   a                                                   + 
 +     3      75.373355   b                                                   + 
 +     4     310.302545   c                                                   + 
 +     5     311.842188   a                                                   + 
 +     6     311.842188   a                                                   + 
 + .......................................................................... +
 +        Character table from group theory analysis of eigenvectors          +
 +                           Point Group =  32, Oh                            +
 + .......................................................................... +
 +  Rep  Mul |    E   2   4   m   m                                           +
 +           | --------------------                                           +
 + a       2 |    2  -2   0   0   0                                           +
 + b       1 |    1   1   1   1   1                                           +
 + c       1 |    1   1  -1  -1   1                                           +
 + -------------------------------------------------------------------------- +
 +  q-pt=   22 (  0.125000  0.000000  0.125000)     0.0243902439              +
 + -------------------------------------------------------------------------- +
 +  Acoustic sum rule correction <   0.046362 cm-1 applied                    +
 +     N      Frequency irrep.                                                + 
 +                (cm-1)                                                      + 
 +                                                                            +
 +     1      65.934506   a                                                   + 
 +     2      65.934506   a                                                   + 
 +     3      91.096485   b                                                   + 
 +     4     301.488893   c                                                   + 
 +     5     302.775792   a                                                   + 
 +     6     302.775792   a                                                   + 
 + .......................................................................... +
 +        Character table from group theory analysis of eigenvectors          +
 +                           Point Group =  32, Oh                            +
 + .......................................................................... +
 +  Rep  Mul |    E   2   4   m   m                                           +
 +           | --------------------                                           +
 + a       2 |    2  -2   0   0   0                                           +
 + b       1 |    1   1   1   1   1                                           +
 + c       1 |    1   1  -1  -1   1                                           +
 + -------------------------------------------------------------------------- +
 +  q-pt=   23 (  0.166667  0.000000  0.166667)     0.0243902439              +
 + -------------------------------------------------------------------------- +
 +  Acoustic sum rule correction <   0.038748 cm-1 applied                    +
 +     N      Frequency irrep.                                                + 
 +                (cm-1)                                                      + 
 +                                                                            +
 +     1      78.717769   a                                                   + 
 +     2      78.717769   a                                                   + 
 +     3     109.017972   b                                                   + 
 +     4     292.503384   a                                                   + 
 +     5     292.503384   a                                                   + 
 +     6     293.942373   c                                                   + 
 + .......................................................................... +
 +        Character table from group theory analysis of eigenvectors          +
 +                           Point Group =  32, Oh                            +
 + .......................................................................... +
 +  Rep  Mul |    E   2   4   m   m                                           +
 +           | --------------------                                           +
 + a       2 |    2  -2   0   0   0                                           +
 + b       1 |    1   1   1   1   1                                           +
 + c       1 |    1   1  -1  -1   1                                           +
 + -------------------------------------------------------------------------- +
 +  q-pt=   24 (  0.208333  0.000000  0.208333)     0.0243902439              +
 + -------------------------------------------------------------------------- +
 +  Acoustic sum rule correction <   0.036017 cm-1 applied                    +
 +     N      Frequency irrep.                                                + 
 +                (cm-1)                                                      + 
 +                                                                            +
 +     1      84.585885   a                                                   + 
 +     2      84.585885   a                                                   + 
 +     3     127.837972   b                                                   + 
 +     4     283.026172   a                                                   + 
 +     5     283.026172   a                                                   + 
 +     6     289.261389   c                                                   + 
 + .......................................................................... +
 +        Character table from group theory analysis of eigenvectors          +
 +                           Point Group =  32, Oh                            +
 + .......................................................................... +
 +  Rep  Mul |    E   2   4   m   m                                           +
 +           | --------------------                                           +
 + a       2 |    2  -2   0   0   0                                           +
 + b       1 |    1   1   1   1   1                                           +
 + c       1 |    1   1  -1  -1   1                                           +
 + -------------------------------------------------------------------------- +
 +  q-pt=   25 (  0.250000  0.000000  0.250000)     0.0243902439              +
 + -------------------------------------------------------------------------- +
 +  Acoustic sum rule correction <   0.036264 cm-1 applied                    +
 +     N      Frequency irrep.                                                + 
 +                (cm-1)                                                      + 
 +                                                                            +
 +     1      83.934443   a                                                   + 
 +     2      83.934443   a                                                   + 
 +     3     146.226940   b                                                   + 
 +     4     276.317956   a                                                   + 
 +     5     276.317956   a                                                   + 
 +     6     287.266519   c                                                   + 
 + .......................................................................... +
 +        Character table from group theory analysis of eigenvectors          +
 +                           Point Group =  32, Oh                            +
 + .......................................................................... +
 +  Rep  Mul |    E   2   4   m   m                                           +
 +           | --------------------                                           +
 + a       2 |    2  -2   0   0   0                                           +
 + b       1 |    1   1   1   1   1                                           +
 + c       1 |    1   1  -1  -1   1                                           +
 + -------------------------------------------------------------------------- +
 +  q-pt=   26 (  0.291667  0.000000  0.291667)     0.0243902439              +
 + -------------------------------------------------------------------------- +
 +  Acoustic sum rule correction <   0.038377 cm-1 applied                    +
 +     N      Frequency irrep.                                                + 
 +                (cm-1)                                                      + 
 +                                                                            +
 +     1      79.218652   a                                                   + 
 +     2      79.218652   a                                                   + 
 +     3     162.876936   b                                                   + 
 +     4     273.259582   a                                                   + 
 +     5     273.259582   a                                                   + 
 +     6     286.129268   c                                                   + 
 + .......................................................................... +
 +        Character table from group theory analysis of eigenvectors          +
 +                           Point Group =  32, Oh                            +
 + .......................................................................... +
 +  Rep  Mul |    E   2   4   m   m                                           +
 +           | --------------------                                           +
 + a       2 |    2  -2   0   0   0                                           +
 + b       1 |    1   1   1   1   1                                           +
 + c       1 |    1   1  -1  -1   1                                           +
 + -------------------------------------------------------------------------- +
 +  q-pt=   27 (  0.333333  0.000000  0.333333)     0.0243902439              +
 + -------------------------------------------------------------------------- +
 +  Acoustic sum rule correction <   0.040856 cm-1 applied                    +
 +     N      Frequency irrep.                                                + 
 +                (cm-1)                                                      + 
 +                                                                            +
 +     1      74.356408   a                                                   + 
 +     2      74.356408   a                                                   + 
 +     3     177.206735   b                                                   + 
 +     4     273.124542   a                                                   + 
 +     5     273.124542   a                                                   + 
 +     6     283.129413   c                                                   + 
 + .......................................................................... +
 +        Character table from group theory analysis of eigenvectors          +
 +                           Point Group =  32, Oh                            +
 + .......................................................................... +
 +  Rep  Mul |    E   2   4   m   m                                           +
 +           | --------------------                                           +
 + a       2 |    2  -2   0   0   0                                           +
 + b       1 |    1   1   1   1   1                                           +
 + c       1 |    1   1  -1  -1   1                                           +
 + -------------------------------------------------------------------------- +
 +  q-pt=   28 (  0.375000  0.000000  0.375000)     0.0243902439              +
 + -------------------------------------------------------------------------- +
 +  Acoustic sum rule correction <   0.042114 cm-1 applied                    +
 +     N      Frequency irrep.                                                + 
 +                (cm-1)                                                      + 
 +                                                                            +
 +     1      72.254128   a                                                   + 
 +     2      72.254128   a                                                   + 
 +     3     189.881760   b                                                   + 
 +     4     274.497375   a                                                   + 
 +     5     274.497375   a                                                   + 
 +     6     276.001775   c                                                   + 
 + .......................................................................... +
 +        Character table from group theory analysis of eigenvectors          +
 +                           Point Group =  32, Oh                            +
 + .......................................................................... +
 +  Rep  Mul |    E   2   4   m   m                                           +
 +           | --------------------                                           +
 + a       2 |    2  -2   0   0   0                                           +
 + b       1 |    1   1   1   1   1                                           +
 + c       1 |    1   1  -1  -1   1                                           +
 + -------------------------------------------------------------------------- +
 +  q-pt=   29 (  0.416667  0.000000  0.416667)     0.0243902439              +
 + -------------------------------------------------------------------------- +
 +  Acoustic sum rule correction <   0.042189 cm-1 applied                    +
 +     N      Frequency irrep.                                                + 
 +                (cm-1)                                                      + 
 +                                                                            +
 +     1      72.436619   a                                                   + 
 +     2      72.436619   a                                                   + 
 +     3     202.478396   b                                                   + 
 +     4     264.140323   c                                                   + 
 +     5     276.394033   a                                                   + 
 +     6     276.394033   a                                                   + 
 + .......................................................................... +
 +        Character table from group theory analysis of eigenvectors          +
 +                           Point Group =  32, Oh                            +
 + .......................................................................... +
 +  Rep  Mul |    E   2   4   m   m                                           +
 +           | --------------------                                           +
 + a       2 |    2  -2   0   0   0                                           +
 + b       1 |    1   1   1   1   1                                           +
 + c       1 |    1   1  -1  -1   1                                           +
 + -------------------------------------------------------------------------- +
 +  q-pt=   30 (  0.458333  0.000000  0.458333)     0.0243902439              +
 + -------------------------------------------------------------------------- +
 +  Acoustic sum rule correction <   0.042160 cm-1 applied                    +
 +     N      Frequency irrep.                                                + 
 +                (cm-1)                                                      + 
 +                                                                            +
 +     1      72.800311   a                                                   + 
 +     2      72.800311   a                                                   + 
 +     3     216.456619   b                                                   + 
 +     4     248.796573   c                                                   + 
 +     5     278.149659   a                                                   + 
 +     6     278.149659   a                                                   + 
 + .......................................................................... +
 +        Character table from group theory analysis of eigenvectors          +
 +                           Point Group =  32, Oh                            +
 + .......................................................................... +
 +  Rep  Mul |    E   2   4   m   m                                           +
 +           | --------------------                                           +
 + a       2 |    2  -2   0   0   0                                           +
 + b       1 |    1   1   1   1   1                                           +
 + c       1 |    1   1  -1  -1   1                                           +
 + -------------------------------------------------------------------------- +
 +  q-pt=   31 (  0.500000  0.000000  0.500000)     0.0243902439              +
 + -------------------------------------------------------------------------- +
 +  Acoustic sum rule correction <   0.042226 cm-1 applied                    +
 +     N      Frequency irrep.                                                + 
 +                (cm-1)                                                      + 
 +                                                                            +
 +     1      72.808653   a                                                   + 
 +     2      72.808653   a                                                   + 
 +     3     232.220531   b                                                   + 
 +     4     232.220531   b                                                   + 
 +     5     278.900398   a                                                   + 
 +     6     278.900398   a                                                   + 
 + .......................................................................... +
 +        Character table from group theory analysis of eigenvectors          +
 +                           Point Group =  32, Oh                            +
 + .......................................................................... +
 +  Rep  Mul |    E   2   2   4   2   I   m   m  -4   m                       +
 +           | ----------------------------------------                       +
 + a       2 |    2   0  -2   0   0   0   0   0   0   0                       +
 + b       1 |    2   0   2   0   0   0   0   0   0   2                       +
 + -------------------------------------------------------------------------- +
 +  q-pt=   32 (  0.500000  0.041667  0.541667)     0.0243902439              +
 + -------------------------------------------------------------------------- +
 +  Acoustic sum rule correction <   0.038242 cm-1 applied                    +
 +     N      Frequency irrep.                                                + 
 +                (cm-1)                                                      + 
 +                                                                            +
 +     1      79.849794   a                                                   + 
 +     2      79.849794   a                                                   + 
 +     3     230.699388   a                                                   + 
 +     4     230.699388   a                                                   + 
 +     5     278.570393   a                                                   + 
 +     6     278.570393   a                                                   + 
 + .......................................................................... +
 +        Character table from group theory analysis of eigenvectors          +
 +                           Point Group =  32, Oh                            +
 + .......................................................................... +
 +  Rep  Mul |    E   2   m   m                                               +
 +           | ----------------                                               +
 + a       3 |    2   0   0   0                                               +
 + -------------------------------------------------------------------------- +
 +  q-pt=   33 (  0.500000  0.083333  0.583333)     0.0243902439              +
 + -------------------------------------------------------------------------- +
 +  Acoustic sum rule correction <   0.031145 cm-1 applied                    +
 +     N      Frequency irrep.                                                + 
 +                (cm-1)                                                      + 
 +                                                                            +
 +     1      96.040591   a                                                   + 
 +     2      96.040591   a                                                   + 
 +     3     226.452933   a                                                   + 
 +     4     226.452933   a                                                   + 
 +     5     277.593530   a                                                   + 
 +     6     277.593530   a                                                   + 
 + .......................................................................... +
 +        Character table from group theory analysis of eigenvectors          +
 +                           Point Group =  32, Oh                            +
 + .......................................................................... +
 +  Rep  Mul |    E   2   m   m                                               +
 +           | ----------------                                               +
 + a       3 |    2   0   0   0                                               +
 + -------------------------------------------------------------------------- +
 +  q-pt=   34 (  0.500000  0.125000  0.625000)     0.0243902439              +
 + -------------------------------------------------------------------------- +
 +  Acoustic sum rule correction <   0.025363 cm-1 applied                    +
 +     N      Frequency irrep.                                                + 
 +                (cm-1)                                                      + 
 +                                                                            +
 +     1     113.819587   a                                                   + 
 +     2     113.819587   a                                                   + 
 +     3     220.517839   a                                                   + 
 +     4     220.517839   a                                                   + 
 +     5     275.753642   a                                                   + 
 +     6     275.753642   a                                                   + 
 + .......................................................................... +
 +        Character table from group theory analysis of eigenvectors          +
 +                           Point Group =  32, Oh                            +
 + .......................................................................... +
 +  Rep  Mul |    E   2   m   m                                               +
 +           | ----------------                                               +
 + a       3 |    2   0   0   0                                               +
 + -------------------------------------------------------------------------- +
 +  q-pt=   35 (  0.500000  0.166667  0.666667)     0.0243902439              +
 + -------------------------------------------------------------------------- +
 +  Acoustic sum rule correction <   0.021241 cm-1 applied                    +
 +     N      Frequency irrep.                                                + 
 +                (cm-1)                                                      + 
 +                                                                            +
 +     1     128.914123   a                                                   + 
 +     2     128.914123   a                                                   + 
 +     3     214.344134   a                                                   + 
 +     4     214.344134   a                                                   + 
 +     5     272.907389   a                                                   + 
 +     6     272.907389   a                                                   + 
 + .......................................................................... +
 +        Character table from group theory analysis of eigenvectors          +
 +                           Point Group =  32, Oh                            +
 + .......................................................................... +
 +  Rep  Mul |    E   2   m   m                                               +
 +           | ----------------                                               +
 + a       3 |    2   0   0   0                                               +
 + -------------------------------------------------------------------------- +
 +  q-pt=   36 (  0.500000  0.208333  0.708333)     0.0243902439              +
 + -------------------------------------------------------------------------- +
 +  Acoustic sum rule correction <   0.018364 cm-1 applied                    +
 +     N      Frequency irrep.                                                + 
 +                (cm-1)                                                      + 
 +                                                                            +
 +     1     139.231982   a                                                   + 
 +     2     139.231982   a                                                   + 
 +     3     209.432003   a                                                   + 
 +     4     209.432003   a                                                   + 
 +     5     269.947161   a                                                   + 
 +     6     269.947161   a                                                   + 
 + .......................................................................... +
 +        Character table from group theory analysis of eigenvectors          +
 +                           Point Group =  32, Oh                            +
 + .......................................................................... +
 +  Rep  Mul |    E   2   m   m                                               +
 +           | ----------------                                               +
 + a       3 |    2   0   0   0                                               +
 + -------------------------------------------------------------------------- +
 +  q-pt=   37 (  0.468750  0.281250  0.750000)     0.0243902439              +
 + -------------------------------------------------------------------------- +
 +  Acoustic sum rule correction <   0.014846 cm-1 applied                    +
 +     N      Frequency irrep.                                                + 
 +                (cm-1)                                                      + 
 +                                                                            +
 +     1     133.114737   a                                                   + 
 +     2     145.017276   b                                                   + 
 +     3     204.575318   a                                                   + 
 +     4     212.998375   b                                                   + 
 +     5     267.922701   b                                                   + 
 +     6     271.239866   a                                                   + 
 + .......................................................................... +
 +        Character table from group theory analysis of eigenvectors          +
 +                           Point Group =  32, Oh                            +
 + .......................................................................... +
 +  Rep  Mul |    E   m                                                       +
 +           | --------                                                       +
 + a       3 |    1   1                                                       +
 + b       3 |    1  -1                                                       +
 + -------------------------------------------------------------------------- +
 +  q-pt=   38 (  0.437500  0.312500  0.750000)     0.0243902439              +
 + -------------------------------------------------------------------------- +
 +  Acoustic sum rule correction <   0.014495 cm-1 applied                    +
 +     N      Frequency irrep.                                                + 
 +                (cm-1)                                                      + 
 +                                                                            +
 +     1     112.721673   a                                                   + 
 +     2     144.112839   b                                                   + 
 +     3     205.283337   a                                                   + 
 +     4     216.988890   b                                                   + 
 +     5     269.346862   b                                                   + 
 +     6     274.986059   a                                                   + 
 + .......................................................................... +
 +        Character table from group theory analysis of eigenvectors          +
 +                           Point Group =  32, Oh                            +
 + .......................................................................... +
 +  Rep  Mul |    E   m                                                       +
 +           | --------                                                       +
 + a       3 |    1   1                                                       +
 + b       3 |    1  -1                                                       +
 + -------------------------------------------------------------------------- +
 +  q-pt=   39 (  0.406250  0.343750  0.750000)     0.0243902439              +
 + -------------------------------------------------------------------------- +
 +  Acoustic sum rule correction <   0.014245 cm-1 applied                    +
 +     N      Frequency irrep.                                                + 
 +                (cm-1)                                                      + 
 +                                                                            +
 +     1      90.950379   a                                                   + 
 +     2     141.512218   b                                                   + 
 +     3     205.977301   a                                                   + 
 +     4     218.428469   b                                                   + 
 +     5     272.220383   b                                                   + 
 +     6     278.395515   a                                                   + 
 + .......................................................................... +
 +        Character table from group theory analysis of eigenvectors          +
 +                           Point Group =  32, Oh                            +
 + .......................................................................... +
 +  Rep  Mul |    E   m                                                       +
 +           | --------                                                       +
 + a       3 |    1   1                                                       +
 + b       3 |    1  -1                                                       +
 + -------------------------------------------------------------------------- +
 +  q-pt=   40 (  0.375000  0.375000  0.750000)     0.0243902439              +
 + -------------------------------------------------------------------------- +
 +  Acoustic sum rule correction <   0.014152 cm-1 applied                    +
 +     N      Frequency irrep.                                                + 
 +                (cm-1)                                                      + 
 +                                                                            +
 +     1      80.933701   a                                                   + 
 +     2     140.076765   b                                                   + 
 +     3     206.063718   c                                                   + 
 +     4     218.532964   b                                                   + 
 +     5     273.763029   d                                                   + 
 +     6     279.795307   c                                                   + 
 + .......................................................................... +
 +        Character table from group theory analysis of eigenvectors          +
 +                           Point Group =  32, Oh                            +
 + .......................................................................... +
 +  Rep  Mul |    E   2   m   m                                               +
 +           | ----------------                                               +
 + a       1 |    1  -1   1  -1                                               +
 + b       2 |    1  -1  -1   1                                               +
 + c       2 |    1   1   1   1                                               +
 + d       1 |    1   1  -1  -1                                               +
 ==============================================================================
 ===================================================
                   Born Effective Charges
                   ----------------------
   Ge      1         0.00000     0.00000     0.00000
                     0.00000     0.00000     0.00000
                     0.00000     0.00000     0.00000
   Ge      2         0.00000     0.00000     0.00000
                     0.00000     0.00000     0.00000
                     0.00000     0.00000     0.00000
 ===================================================
 
 ***************** Symmetrised Forces *****************
 *                                                    *
 *            Cartesian components (eV/A)             *
 * -------------------------------------------------- *
 *                   x            y            z      *
 *                                                    *
 * Ge        1      0.00000      0.00000      0.00000 *
 * Ge        2      0.00000      0.00000      0.00000 *
 *                                                    *
 ******************************************************

Writing analysis data to Ge_PhonDisp.castep_bin

Writing model to Ge_PhonDisp.check
 
 A BibTeX formatted list of references used in this run has been written to 
 Ge_PhonDisp.bib
 
Initialisation time =      0.66 s
Calculation time    =      0.20 s
Finalisation time   =      0.05 s
Total time          =      0.91 s
  
Overall parallel efficiency rating: Satisfactory (64%)                          
  
Data was distributed by:-
k-point (2-way); efficiency rating: Satisfactory (64%)                          
  
Parallel notes:
1) Calculation only took 0.9 s, so efficiency estimates may be inaccurate.      
