#BIOSYM hessian 1
@Type: Hessian Update
@Units
 distance: 	A
 energy: 	Kcal/Mol
#header
@natom 19

#label
L1      L2      L3      L4      L5      L6      L7      L8      L9      L10     L11     L12     L13     L14     L15     L16     L17     L18     L19

#element
Li Li Li Li Li Li Li Li Li Li Li Li Li Li Li Li Li Li Li

#matrix
57
 5.529776521079E+00
 1.018589898768E+00 1.490110087713E+00
 7.919807638827E-01 1.746692447870E-01 2.012876050866E+00
 4.768627889829E+00 1.034752303982E+00 1.049067276370E+00 5.708318717868E+00
 -7.032450416028E-01 -1.695438061305E-01 -2.987624526041E-02 -5.383063060910E-01 4.937812201956E-01
 1.144668482513E+00 9.630586865974E-01 -4.646150972456E-01 1.062783050558E+00 -1.396841518163E-01 2.545755623493E+00
 2.441237488990E+00 1.223263568486E+00 -3.694658344636E-01 2.214564193188E+00 -3.720562078868E-01 1.737137811663E+00 5.183406525227E+00
 2.016524973960E+00 5.071235987452E-01 5.729156441856E-03 1.870597973702E+00 -3.755635550840E-01 8.302333877916E-01 1.140370320859E+00 1.433127824622E+00
 2.251140641226E+00 -7.059697189178E-01 9.008944358911E-02 1.930211997620E+00 -5.077433928722E-01 -2.947366144984E-01 -1.118063939913E+00 1.446083003370E+00 6.124264915839E+00
 -4.730618311802E+00 -9.135885279720E-01 -7.668790721801E-01 -4.783065091404E+00 6.627405700354E-01 -1.176297755735E+00 -2.573836320145E+00 -1.983052183880E+00 -2.605734036591E+00 5.644017286659E+00
 -5.384831740975E-01 -2.319505702270E+00 -3.736116652300E-01 -9.662680708763E-01 -3.220265973003E-01 -1.711238834488E+00 -2.295088970087E+00 -2.541953674542E-01 3.594990319422E+00 4.174298448334E-01 6.118141395065E+00
 3.497138033373E-01 -1.509251895142E+00 -9.048691346661E-01 -2.848792651287E-01 -4.416717680258E-01 -4.623308093296E-01 -2.377098587565E+00 1.275238679637E+00 6.506154709679E+00 -9.727105543955E-01 5.642823378301E+00 1.195832776797E+01
 -5.222468919606E+00 -1.268016167624E+00 -1.035540556619E+00 -5.297080185163E+00 7.578701682692E-01 -1.282425178723E+00 -2.918290036425E+00 -1.975754564700E+00 -1.938037852707E+00 5.207649204372E+00 1.113290361422E+00 5.402391974156E-01 6.736050560003E+00
 6.435047186335E-01 2.714283139753E-01 -9.956772362498E-02 7.444727865340E-01 -1.404185470845E-01 4.520953625800E-01 7.863440818747E-01 3.145684081766E-01 -1.035505947680E-02 -7.250491450233E-01 -6.190305184437E-01 -1.583890682124E-01 -6.289248998854E-01 6.073332010210E-01
 -4.960721335977E-01 -3.341470682887E-01 5.283636018632E-01 -4.335305092132E-01 1.049531815942E-01 -7.389778805710E-01 -1.157647044380E+00 -6.312791332975E-01 -4.708658044461E-01 5.890979128245E-01 3.608713771844E-01 -1.030049255896E+00 6.043414104223E-01 -3.423046453076E-01 1.874378946665E+00
 -2.697631741330E+00 -2.790677985240E-01 5.191688424338E-01 -2.355617222575E+00 3.962557526311E-01 -1.206757330440E+00 -2.991201726395E+00 -1.223501684052E+00 -3.890611932088E-01 2.565401926023E+00 3.487312829640E-01 3.610577227744E-01 2.561537515508E+00 -7.684095570287E-01 1.040722422760E+00 4.385843094053E+00
 -1.457838065879E+00 -8.090750575999E-01 1.161556933865E-01 -1.383958366646E+00 1.582806451116E-01 -9.820101051646E-01 -1.409695101084E+00 -1.002642414608E+00 -6.381152114847E-01 1.681323728167E+00 8.762609022179E-01 -5.198961469416E-01 1.680015016446E+00 -4.923041898994E-01 7.395959872373E-01 1.268610780689E+00 1.357879273183E+00
 -1.544533075641E+00 1.093029973902E+00 -2.363174062740E-01 -1.569649106877E+00 3.969747809060E-01 5.929679659001E-01 -4.813303615720E-01 -2.368604858418E-01 -1.055516916020E+00 1.516864539170E+00 -2.436574281955E+00 4.601754484771E-01 1.742508500983E+00 -1.865472654052E-02 -7.290990062833E-01 1.573582995841E+00 -4.080643662240E-01 4.976212246038E+00
 -2.102182603949E+00 -8.427445051969E-01 -2.140857255164E-01 -1.913261945323E+00 1.965088136633E-01 -1.102725346192E+00 -2.042613826281E+00 -9.211604234043E-01 1.349255001844E-01 1.900287615475E+00 1.444466423972E+00 1.134820411997E+00 2.236043139917E+00 -4.931215329124E-01 5.580302100898E-01 1.662383760423E+00 9.566212546610E-01 3.671174360106E-01 2.282028451578E+00
 -1.377911599160E+00 1.563783583040E-01 1.349371972304E-01 -1.274875924355E+00 2.680576731687E-01 -2.569735820819E-01 -1.496558195328E+00 -5.112510359511E-01 -2.053993062142E-01 1.359229589143E+00 -4.856511992602E-01 3.681957505061E-01 1.572289296511E+00 -3.670609258825E-01 3.158040411512E-01 1.717811848057E+00 3.362509681112E-01 1.604046234198E+00 1.280939299373E+00 2.764147756174E+00
 -2.876920357832E+00 -5.306602636857E-01 -1.279890778853E+00 -2.608672132491E+00 3.420261643171E-01 -3.668096187249E-01 -6.321100117956E-01 -9.664338059894E-01 -1.364157963843E+00 2.582514733807E+00 2.580005010633E-01 1.332094994645E-01 2.711188401632E+00 -2.237534516950E-01 -1.616195160646E-01 8.923814374137E-01 6.676188062388E-01 1.045240466530E+00 7.934579691210E-01 5.040879377367E-01 2.759224636629E+00
 1.492569954460E+00 -1.036545354903E+00 1.000454032677E-01 1.286418155402E+00 -4.883804893126E-01 -8.121538007070E-01 5.308307033244E-01 4.970518869588E-01 1.645237620206E+00 -1.555238403450E+00 2.665476760759E+00 1.240237909102E+00 -1.626295498048E+00 1.456204251835E-01 1.483387296824E-01 -1.617041176240E+00 -9.281946575112E-02 -2.808617482708E+00 -3.614223101811E-01 -1.735704850069E+00 -7.853828903088E-01 3.599041158993E+00
 -2.298379757792E-01 -5.341427167059E-01 2.301947898723E-01 -1.875319600047E-01 -1.926607479204E-02 -6.292900236982E-01 -2.844099994677E-01 -3.345236553383E-01 -2.165404605472E-01 2.879567986127E-01 8.410711284638E-01 -6.019564717223E-01 1.690182927519E-01 -1.065167682577E-01 4.639390351253E-01 -9.648239023937E-03 4.383504240761E-01 -9.873496507743E-01 1.155608658248E-01 -1.086341954619E+00 -1.830833692784E-02 1.075429887380E+00 1.244290259056E+00
 -9.605654924396E-01 1.499044106474E+00 -1.059580757892E+00 -1.081126138182E+00 2.537958419073E-01 1.205094920245E+00 3.024720810907E+00 -1.597979913211E-01 -4.061501799667E+00 1.070835015153E+00 -4.431221537140E+00 -4.523226528184E+00 5.026376302608E-01 5.691423858816E-01 -1.086804496114E+00 -1.350753111599E+00 -8.067893330107E-01 2.219785323124E+00 -1.349895589053E+00 -2.017974343936E-01 1.305097410411E+00 -1.690005280208E+00 -6.989685231752E-01 6.520352088802E+00
 -1.450710291862E+00 -7.615260758937E-01 -4.037864798918E-01 -1.741919087749E+00 7.149992588179E-02 -6.059613122588E-01 -2.196953678886E+00 -3.649807865422E-01 7.752855622576E-01 1.297685089637E+00 1.842774455550E+00 3.058396850076E+00 1.957437245217E+00 -2.767096916565E-01 6.716351191181E-02 1.258499909685E+00 4.307588219268E-01 7.031026597201E-01 1.044798201681E+00 7.328341003686E-01 7.185424637043E-01 -8.657241039369E-01 -1.909990535476E-01 -1.204809914029E+00 2.580470887846E+00
 -6.317035418258E-01 1.982222738174E+00 6.465409370533E-02 -2.707526551181E-01 4.685865387979E-01 1.451180439399E+00 2.267300080263E+00 -5.409287841594E-01 -5.363437079014E+00 9.889165401537E-01 -5.972427607022E+00 -7.796439384986E+00 1.969124454214E-02 3.546106263729E-01 -7.385512468290E-02 -1.928178015420E-01 -3.024216227001E-01 1.700671772605E+00 -1.306810673538E+00 3.037660942333E-01 2.942131228080E-01 -2.601664727308E+00 -4.369228667180E-01 5.419373351417E+00 -1.632891936514E+00 8.181294092010E+00
 -1.267269704708E+00 1.009169381085E+00 6.477091236517E-01 -8.526940127273E-01 4.628955330899E-01 2.104510111682E-01 3.970053084169E-01 -1.303523940514E+00 -5.180445827877E+00 1.666648245982E+00 -3.934154963265E+00 -7.031796595951E+00 7.670625354342E-01 -6.363262115087E-02 8.335208808269E-01 6.781684019057E-01 5.950733238745E-01 8.684493560909E-01 -2.728256923787E-01 4.001115261497E-01 4.356210060119E-01 -1.614927602828E+00 2.178326076480E-01 3.035380575620E+00 -1.277109762282E+00 5.226266527620E+00 5.435699372049E+00
 -2.275298321013E+00 -4.510017240128E-02 6.055858598302E-01 -2.125539446642E+00 5.038490759102E-01 -1.031635532573E+00 -2.603847154419E+00 -1.148754935692E+00 -8.452973863196E-01 2.181638758309E+00 -5.526822898128E-01 -2.349728281876E-01 2.488739476305E+00 -6.773164718225E-01 9.868749893255E-01 2.900430822135E+00 1.078889902526E+00 1.712267669137E+00 1.092014976569E+00 1.764067021139E+00 6.360861547307E-01 -1.951634284500E+00 -9.963887345804E-02 -8.394483289711E-01 8.311079947362E-01 4.288976816879E-01 1.337919615771E+00 3.920809474430E+00
 -6.940885990468E-01 -8.529898291628E-02 8.041234848497E-01 -4.931188646294E-01 2.066562030441E-01 -9.617767081726E-01 -1.455581432824E+00 -7.373613728747E-01 -3.773246978693E-01 7.651750549935E-01 -8.948235753945E-02 -8.843515450128E-01 7.446177321632E-01 -5.048456134899E-01 1.020160375232E+00 1.499566193977E+00 7.611717084255E-01 1.671668001183E-01 7.489329267603E-01 7.888918706395E-01 -1.011657996383E-01 -6.103270242528E-01 2.319545552719E-01 -1.296522796859E+00 -1.558318090401E-01 -7.679304463929E-01 1.180932757546E+00 2.236610380731E+00 3.020807268433E+00
 -1.278011124186E+00 -9.410462715101E-02 -2.356394664344E-01 -1.450918882182E+00 1.833447762711E-01 -2.120908278014E-01 -1.169158734736E+00 -3.533484020386E-01 -1.576098064294E-01 1.536474438994E+00 1.495601461570E-01 3.440336064693E-01 1.661537995357E+00 -1.448237791109E-01 1.537866569152E-02 1.089673183710E+00 2.930284792463E-01 1.152538199461E+00 6.442927505917E-01 7.831990461038E-01 5.806779030025E-01 -8.085484339168E-01 -1.809935802638E-01 5.433222750921E-02 8.470993567729E-01 1.403978593776E-01 -1.350099762325E-02 1.036497354663E+00 -8.188197919171E-02 1.643992266550E+00
 2.168694315353E+00 7.441685699217E-01 4.480777319804E-02 2.015755976205E+00 -2.605361132507E-01 9.522848290578E-01 1.676248538688E+00 9.338403237752E-01 3.556732321625E-01 -2.190423707261E+00 -1.062142027034E+00 -6.988518442807E-01 -2.424603641128E+00 3.749758094132E-01 -3.699992317600E-02 -1.566979667297E+00 -9.036342280182E-01 -5.963795199008E-01 -1.271326074159E+00 -6.702610495843E-01 -1.092137548034E+00 5.886221555408E-01 -1.773202378738E-01 6.364918038376E-01 -9.643432969199E-01 8.513088883696E-01 -7.349047840226E-02 -1.422688089086E+00 -8.875563325123E-01 -7.797313459680E-01 2.039127808947E+00
 1.098112633793E+00 7.447016268942E-02 -3.474057269181E-01 1.076287089507E+00 -2.289748900053E-01 6.838945378732E-01 1.869545930685E+00 4.823228843868E-01 -1.784668785084E-01 -1.118287392551E+00 -9.724693963372E-02 -4.865052886258E-01 -1.428783004557E+00 4.220837969366E-01 -5.443528928588E-01 -1.799710680582E+00 -5.253272133756E-01 -8.511422865282E-01 -8.747731767916E-01 -1.142820789150E+00 -9.278945506782E-02 1.029300666203E+00 1.235086922555E-01 1.089296386697E+00 -7.502469174946E-01 2.624396326846E-01 -2.814237911220E-01 -2.067644172175E+00 -1.760555135301E+00 -6.761923572384E-01 9.915872919788E-01 1.989714824417E+00
 1.767191359000E+00 5.623310673560E-01 -1.201798333593E+00 1.697217838928E+00 -3.433712346194E-01 1.770059445528E+00 3.515714153970E+00 1.226517400645E+00 -2.839641012815E-01 -1.848712315159E+00 -9.708450144194E-01 -5.377703758082E-01 -1.774998939546E+00 9.772069867781E-01 -1.931714368996E+00 -3.255985830299E+00 -1.474761300847E+00 -7.289068976749E-01 -1.909933345995E+00 -1.705850534622E+00 -2.572603751290E-01 1.032860471955E+00 -3.121583656914E-01 2.836686002904E+00 -1.098362659098E+00 1.312720937797E+00 -5.731654953953E-01 -3.264579656033E+00 -2.425967448159E+00 -7.058648958858E-01 1.396352664537E+00 2.004958238993E+00 4.828617926164E+00
 3.605360650837E+00 4.382122241990E-01 -2.691352521707E-01 3.576232514263E+00 -6.129494068948E-01 1.373035441426E+00 3.592543065149E+00 1.552187908035E+00 6.865355792610E-01 -3.618661291466E+00 -2.068027419326E-01 -8.062666697669E-01 -4.203280932404E+00 8.337069992329E-01 -1.078383066908E+00 -3.992617130941E+00 -1.505139469633E+00 -2.156345013033E+00 -2.251449386983E+00 -2.556009135147E+00 -1.529806126189E+00 2.374249996729E+00 1.800206504694E-01 1.068046075925E+00 -1.711852465286E+00 8.689470430619E-03 -7.425063200668E-01 -3.632981781408E+00 -1.623020688480E+00 -1.505236643182E+00 1.547527930505E+00 2.147547217164E+00 3.839497902036E+00 5.863570834319E+00
 2.796292442955E+00 1.268888721956E-01 1.971289369010E-01 2.775044521799E+00 -4.821762265253E-01 4.741447636661E-01 2.005921819289E+00 1.060566867870E+00 9.529223851109E-01 -2.795713056581E+00 4.167617465949E-01 -5.523793151911E-02 -3.177979652466E+00 5.070004758672E-01 -4.848946024173E-01 -2.394336523798E+00 -8.164144105988E-01 -1.842925917490E+00 -1.446302982372E+00 -2.313974799625E+00 -1.405163656251E+00 2.034495128946E+00 3.304380335515E-01 -2.712917580369E-01 -1.078145303487E+00 -7.192182487352E-01 -7.845476386304E-01 -2.372786166976E+00 -8.755773361580E-01 -1.145805413434E+00 1.132055911968E+00 1.358189080697E+00 1.968142373985E+00 3.658561511977E+00 3.149765162134E+00
 -1.049580071943E+00 -8.553044237639E-02 -3.831579323930E-01 -1.173889214642E+00 1.413496011941E-01 9.995334618997E-02 -8.529558576726E-01 -1.250127543256E-01 4.784753692674E-01 9.323147536059E-01 2.418356083850E-01 1.525997789552E+00 1.378139969910E+00 -1.261749912048E-01 -8.449431249510E-02 1.236920322843E+00 2.753659006414E-01 5.253591053417E-01 4.065624980559E-01 5.153835185987E-01 6.662382072700E-01 -9.307248099774E-01 -4.043629510122E-01 -1.133678215656E-01 7.970584433447E-01 -3.981144396789E-01 -7.251301045677E-01 7.822547590873E-01 -7.039110978270E-03 6.203842542477E-01 -6.544705946335E-01 -6.138685106481E-01 -5.566649967467E-01 -1.545404298618E+00 -9.702707911214E-01 1.380646257413E+00
 2.137857423330E+00 4.825821421687E-01 1.061608015544E-01 2.382882705925E+00 -3.976463727004E-01 1.166082955725E+00 3.185651844450E+00 8.795960760500E-01 -6.547742608552E-01 -2.274250852267E+00 -1.029885629266E+00 -2.067047300534E+00 -2.839533700981E+00 6.984766603275E-01 -7.681946553198E-01 -2.801355035376E+00 -9.882738567372E-01 -1.571320948633E+00 -1.735970788790E+00 -1.830259998559E+00 -7.820712334372E-01 1.489733079665E+00 1.850430744147E-01 1.837206450082E+00 -1.669665352541E+00 1.245574124615E+00 4.099800811050E-01 -2.733243411642E+00 -1.332060617208E+00 -1.199917285605E+00 1.536379883959E+00 1.917441666582E+00 3.141824740083E+00 3.673944982155E+00 2.355949057005E+00 -1.130930403795E+00 4.243881972467E+00
 7.165231373213E-02 -4.368787615023E-01 -9.702214622577E-01 -1.305241521507E-01 -2.527470016407E-01 5.447890596409E-01 7.308514824263E-01 4.356219091779E-01 8.253536755089E-01 -2.922122458535E-01 1.238044062067E+00 1.916462781479E+00 1.084301063446E-01 2.869309960079E-01 -8.566622883246E-01 -1.219903273403E+00 -5.085955643778E-01 -6.835731198741E-01 -4.079487521539E-01 -7.902657185152E-01 3.540059762809E-01 9.991155164959E-01 -1.864723798170E-02 5.573871580288E-01 4.158952049379E-01 -1.081262661896E+00 -1.571985279227E+00 -1.576900005745E+00 -1.351668835658E+00 1.144860118693E-02 3.675924109402E-01 8.693703958204E-01 2.091523300808E+00 1.294224397951E+00 6.263305910787E-01 1.890029200613E-01 1.643935334000E+00 3.098422810195E+00
 1.332475848654E+00 -2.766239912418E-02 3.622190875912E-01 1.270570261382E+00 -6.420478747853E-02 -5.764617270511E-01 -3.029335879455E-01 1.050213173469E-01 6.312101703642E-01 -9.230523791903E-01 4.786930338903E-01 -2.991667100871E-01 -1.321519645538E+00 -1.446708691168E-01 4.951286841042E-01 9.180094238479E-02 2.357848150657E-01 -9.296044958736E-01 9.925172279593E-02 -1.346508177032E-01 -7.658009082392E-01 5.206219592921E-01 2.808814856219E-01 -1.673404826600E+00 -3.537994824914E-01 -8.823153336877E-01 4.537429408482E-02 2.343994672861E-01 8.735775030818E-01 -3.988861095171E-01 1.864221577557E-01 -1.842079728252E-01 -1.065960429068E+00 8.939180833035E-02 5.803751688836E-01 -4.731157042800E-01 -7.121306570392E-02 -1.209421520290E+00 2.122131401615E+00
 -2.183240522412E+00 -8.547080808145E-01 -4.970174748026E-01 -2.274722036320E+00 1.947129015304E-01 -3.167782193010E-01 -8.701307451093E-01 -9.548241833002E-01 -1.149956357865E+00 2.211425493735E+00 9.062909275305E-01 -6.108186746288E-01 2.190512744120E+00 -2.884059935537E-01 3.457091050213E-01 6.057171971882E-01 8.358666733622E-01 -3.834505594854E-01 7.941071535792E-01 1.859628894571E-02 1.194128951007E+00 -1.552036837618E-02 3.872268832271E-01 2.979536569239E-01 5.102561745236E-01 5.747654240557E-03 6.171563558709E-01 4.936914904146E-01 1.653574589138E-01 3.975737677219E-01 -7.004795291964E-01 1.381323078158E-02 -3.374311352563E-01 -1.044589800291E+00 -7.319096442285E-01 1.922803679093E-01 -6.019592322823E-01 3.003011625716E-03 -5.353422293611E-01 2.168111727815E+00
 -1.019405988683E+00 -2.378307334329E-01 5.005490460763E-01 -1.101576012252E+00 2.214064322279E-01 -8.225431621025E-01 -2.318198068468E+00 -4.045513707993E-01 8.852565854666E-01 9.944842828202E-01 6.671915248512E-01 1.443865575731E+00 1.323417209194E+00 -4.914214350983E-01 7.737841167994E-01 2.061162811624E+00 6.140345640012E-01 9.228514986699E-01 1.112152784096E+00 1.283077686956E+00 6.413837338561E-03 -9.513177121806E-01 -1.383602983088E-01 -1.882963161337E+00 1.020440023210E+00 -1.123423135910E+00 -3.201859549360E-01 2.070263152126E+00 1.199126532940E+00 6.941206641034E-01 -8.010700549718E-01 -1.406293040791E+00 -2.573270163493E+00 -2.524023776982E+00 -1.408023684742E+00 6.763462653256E-01 -2.565765388939E+00 -1.621328101282E+00 5.193421498454E-01 2.550351573026E-01 2.413741653361E+00
 -2.015168185028E+00 -8.947073916663E-01 6.474773399048E-01 -1.526130872162E+00 3.713135297865E-01 -2.184993638515E+00 -2.070754544480E+00 -1.556351581056E+00 -1.417501330416E+00 2.238099682309E+00 8.306638658017E-01 -2.170598103919E+00 2.145801528953E+00 -6.357653582849E-01 1.313639097159E+00 1.920417824063E+00 1.623523182103E+00 -9.508246340543E-01 1.337457553804E+00 5.409250246628E-01 6.047498174425E-01 4.561257128322E-02 8.953679958895E-01 -1.289237930358E+00 2.068155107657E-01 1.519023091635E-01 1.678015252695E+00 1.861002175226E+00 1.664266133537E+00 2.288191596607E-01 -1.197829961009E+00 -9.937539304935E-01 -2.353697998824E+00 -2.150038235483E+00 -1.116246802616E+00 -2.187929776905E-01 -1.349908117398E+00 -1.144757742434E+00 7.049384674655E-01 9.656852445740E-01 8.503733584010E-01 3.439090421327E+00
 -4.443149684370E+00 7.766570315824E-02 1.673639975756E-01 -4.485396900285E+00 9.042108356516E-01 -1.135903267685E+00 -4.433499461495E+00 -1.946643858847E+00 -1.671280104550E+00 4.579106692665E+00 -1.399842399150E+00 -1.025857063472E+00 4.999993447577E+00 -9.744539935225E-01 1.116830972184E+00 4.532762504755E+00 1.594809653095E+00 3.382735758136E+00 2.196824067103E+00 3.058463765408E+00 1.628857529228E+00 -3.590996346407E+00 -3.874801394256E-01 1.458461313660E-01 1.596109138831E+00 1.946778594696E+00 2.344953247819E+00 4.693273847428E+00 2.099125237992E+00 1.904041103030E+00 -2.245159693995E+00 -2.867904158449E+00 -4.285418369495E+00 -5.932261870404E+00 -4.324400133470E+00 1.668291937975E+00 -4.365265898562E+00 -1.890670058805E+00 -4.722150288622E-01 5.273476159993E-01 2.962599227148E+00 2.342626971693E+00 9.416260429482E+00
 -1.927281360022E+00 -2.302620282227E-01 -1.997442068123E-01 -2.110471875974E+00 2.960752132610E-01 -4.709700248382E-01 -2.678271859878E+00 -2.433542783868E-01 1.526041800595E+00 1.718883343767E+00 9.683820806185E-01 3.991863688128E+00 2.465280551611E+00 -4.537427838805E-01 -7.025796885347E-02 2.443229856579E+00 3.345614809021E-01 2.567209449757E+00 1.405277135524E+00 1.798303666675E+00 8.005428881429E-01 -1.794956506020E+00 -7.062234006963E-01 -1.365487066707E+00 2.018765015167E+00 -1.934178773730E+00 -1.591726450344E+00 2.251886075263E+00 6.467860913920E-01 1.437761663431E+00 -1.176224909687E+00 -1.614842292814E+00 -2.267464842539E+00 -3.520206213608E+00 -2.224065169025E+00 1.562047268128E+00 -3.114772064419E+00 -3.059415803905E-01 -5.008827345775E-01 -1.155393982592E-01 2.082806542348E+00 -1.031565200109E-01 4.218188683458E+00 4.506296192162E+00
 6.480915787569E-01 -6.224626502661E-02 4.965295743553E-01 1.110973756846E+00 -4.500286408821E-02 -2.685729500744E-01 2.664799778931E+00 -6.848312889285E-01 -3.960642493290E+00 -2.492524840723E-01 -1.363279329431E+00 -6.691267794530E+00 -1.376478809149E+00 1.702658799607E-01 8.580349244180E-01 -1.704786689216E+00 5.205874886302E-01 -3.039735314188E+00 -9.045421609023E-01 -1.707281800393E+00 -3.768864391376E-01 1.661466041370E+00 1.242060822585E+00 1.652272260875E+00 -2.315117926198E+00 3.162503721710E+00 3.537366363202E+00 -1.435602756809E+00 1.388116957441E-01 -1.451606345194E+00 7.218803793173E-01 1.420800665254E+00 1.321851528194E+00 2.725190027689E+00 1.755738876725E+00 -1.860188856210E+00 2.888603880311E+00 -3.843281244680E-01 6.989386565550E-01 6.551503165349E-01 -2.048088096778E+00 1.814870150230E+00 -3.013699450079E+00 -4.501859806937E+00 7.099212521169E+00
 2.773140042813E+00 4.553762246753E-01 1.135101060903E-02 2.652574240387E+00 -4.785751302735E-01 9.169266876204E-01 1.407156625605E+00 1.524836637527E+00 2.466827316645E+00 -3.156781923789E+00 3.828667338689E-01 2.334439823118E+00 -2.842012745968E+00 4.756192127651E-01 -8.394749428274E-01 -1.706726556527E+00 -1.315356441953E+00 -3.146744524596E-01 -1.082039614949E+00 -7.571410762447E-01 -1.245816947949E+00 9.775149083063E-01 -4.222873818079E-01 -6.410855108169E-01 -2.265154720425E-01 -1.607468343685E+00 -2.218750575822E+00 -1.805333397636E+00 -1.047181158262E+00 -5.468949838379E-01 1.160285037102E+00 7.826451816490E-01 1.543213240553E+00 2.241037054794E+00 1.640721418797E+00 -1.884865229962E-01 8.707294668912E-01 7.813095433872E-01 1.991921452739E-01 -1.372523115392E+00 -6.246714351800E-01 -2.164739022545E+00 -3.273974683485E+00 -5.516873464826E-01 -1.308294758752E+00 3.464033592078E+00
 1.338796742586E+00 2.375728250440E-01 2.733320190221E-01 1.577263971954E+00 -2.251710514326E-01 3.696441434161E-01 2.521653265795E+00 -2.169056617166E-02 -1.983665846688E+00 -1.164583936641E+00 -1.240929726631E+00 -4.410558565208E+00 -1.848654415108E+00 3.888197238894E-01 1.540924490627E-01 -2.133851940489E+00 -2.182926626814E-01 -1.988226858406E+00 -1.157857374555E+00 -1.641550400266E+00 -4.930264973780E-01 1.434901850969E+00 7.304587353627E-01 1.694670502783E+00 -1.939065575347E+00 2.285824705683E+00 1.942799114289E+00 -1.902976823950E+00 -5.482582759081E-01 -1.205262479889E+00 8.801521934498E-01 1.516733386198E+00 1.931438554821E+00 2.998025800864E+00 1.928699680164E+00 -1.538352637270E+00 2.857326751134E+00 1.715874508176E-01 3.851230084713E-01 2.527434973058E-01 -2.004872513109E+00 3.199731288956E-01 -3.520105006991E+00 -4.246118442877E+00 4.446492531070E+00 5.538369900819E-01 4.811855153708E+00
 2.989389929550E+00 6.961011411277E-01 6.961985582830E-01 2.725930620578E+00 -4.252188453347E-01 6.503725618209E-01 7.958901823935E-02 1.708207684863E+00 3.588717940606E+00 -3.516984512696E+00 3.088657146937E-01 3.278437272838E+00 -2.846025709866E+00 2.844900256637E-01 -4.434406877184E-01 -4.126018058840E-01 -1.242684651983E+00 4.828550683513E-01 -6.542301697785E-01 1.624908458337E-01 -1.845004522028E+00 2.041124610857E-01 -6.786963032946E-01 -2.092595802295E+00 3.170509110879E-01 -2.196562303339E+00 -2.672096429774E+00 -3.859190915567E-01 -2.329386091699E-01 -2.172586615344E-03 9.970147770516E-01 -3.472930681957E-01 -9.007554159092E-02 6.517266270669E-01 8.446069070029E-01 2.052699175951E-01 -2.682051454820E-01 -3.334429890355E-02 5.493414026200E-01 -1.988112967531E+00 7.796482719098E-01 -2.068471486862E+00 -1.230575440167E+00 1.317244638721E+00 -3.118305152858E+00 2.418297570319E+00 -1.451305698695E+00 5.233571318789E+00
 -8.569253144385E-01 5.179691685011E-01 1.406846415801E-01 -9.276907388831E-01 2.781714490151E-01 -5.778444280580E-02 -1.064328279888E+00 -2.689307840474E-01 -1.176573338475E-01 8.325562097583E-01 -1.072066165237E+00 4.771804239979E-01 7.467448396983E-01 -2.718603648548E-01 -3.952690034181E-01 1.463910078439E+00 1.546586791130E-01 1.928644777620E+00 5.441723764201E-01 1.327455878458E+00 4.164325563606E-01 -1.710004410918E+00 -5.480624388723E-01 1.915204569736E-01 4.991216906016E-01 5.437902774755E-01 4.128634083430E-01 1.661816601841E+00 6.922534094540E-01 5.892743880252E-01 -6.672452375720E-01 -1.032844545226E+00 -1.462233467539E+00 -2.030540583676E+00 -1.484253356082E+00 7.683472111896E-01 -1.609367418273E+00 -9.047466891418E-01 1.930188028165E-02 -1.456861829194E-01 1.169245550776E+00 6.744717233186E-02 2.701482136725E+00 1.923421336261E+00 -2.034752104232E+00 -5.899084687740E-01 -1.993815346220E+00 4.686729195671E-01 2.533368279548E+00
 2.539218644963E-01 6.820841925936E-01 -1.641986631825E-01 1.769270668074E-01 6.986836846959E-02 6.202787856066E-01 3.061676938312E-01 3.845259382911E-01 1.126778699206E-01 -3.213013064270E-01 -1.143633718890E+00 4.825962027013E-01 -2.916533523661E-01 1.339713645133E-01 -5.588733373541E-01 9.788132826245E-02 -4.717941265523E-01 1.263295330922E+00 -3.028147301289E-01 5.053676698474E-01 8.779629998368E-03 -9.806898801575E-01 -5.994484216976E-01 8.419367012538E-01 6.986838744491E-02 6.399604725083E-01 -5.697627410005E-02 2.222091426863E-01 -1.929617661550E-01 2.208811583400E-01 1.937359673902E-01 -1.944121559258E-01 2.436065536459E-01 -3.158200968840E-01 -4.379997775973E-01 4.517295209516E-01 -2.641339445456E-01 -1.000299277115E-01 -2.915528471013E-01 -5.241142761330E-01 2.080553376242E-01 -9.738427161262E-01 6.030123194221E-01 8.297667128167E-01 -1.395571138069E+00 1.889755180820E-01 -1.411795143461E+00 7.260858056682E-01 1.066609071744E+00 1.310159229624E+00
 -1.225765325249E-01 -1.425564845605E+00 7.808437907426E-01 -3.089997597735E-02 -1.017278500985E-01 -1.776021130090E+00 -1.315521104089E+00 -8.858604509493E-01 -9.593709411724E-02 3.423130268570E-01 2.391146336173E+00 -1.908480234599E+00 -3.228889223843E-01 -5.523683319415E-01 1.107580453168E+00 2.361101107481E-01 1.355254850854E+00 -3.629938587236E+00 6.977787776104E-01 -7.474346407524E-01 -5.022304071774E-01 2.204879670150E+00 1.430660650918E+00 -2.753685900347E+00 -3.755415010566E-01 -1.217952728738E+00 6.618974670791E-01 1.520692871045E-01 1.156479034356E+00 -7.648355164087E-01 -3.670584675394E-01 -9.060225671100E-02 -1.396004100688E+00 4.407679030729E-01 7.292131670572E-01 -1.092995747753E+00 1.842753465164E-01 -5.300307278449E-01 1.338019521735E+00 1.015358302141E+00 1.198633654283E-01 2.858993676469E+00 -6.508510698136E-01 -1.940870593293E+00 3.553596230238E+00 -1.346756867373E+00 1.581577878659E+00 -1.718745478240E+00 -1.131822432883E+00 -1.535683424360E+00 5.466316166691E+00
 1.176889857120E+00 -3.617729501879E-02 -9.717902431558E-02 1.223830356518E+00 -2.202608411434E-01 3.650948445134E-01 1.411234813529E+00 5.491619675697E-01 3.894762920075E-01 -1.190891095187E+00 3.019333754836E-01 -1.816834736312E-02 -1.475317256299E+00 2.911705564429E-01 -3.221070788864E-01 -2.131041200073E+00 -4.482371352343E-01 -1.480553779645E+00 -6.749840020157E-01 -1.003590195239E+00 -3.286205228508E-01 9.970411822373E-01 1.105044367726E-01 2.519761149467E-01 -5.930766065728E-01 -3.345784544917E-01 -5.535553187979E-01 -1.518648412212E+00 -6.868982178745E-01 -5.887013092349E-01 6.498307317997E-01 9.836170485143E-01 1.367357064391E+00 1.906880522464E+00 1.327784276215E+00 -5.648171906061E-01 1.264018361869E+00 2.181654476524E-01 1.713520099744E-01 -2.560413998652E-01 -1.055018971740E+00 -7.040100037024E-01 -2.449401940445E+00 -1.322698730769E+00 1.043070295657E+00 8.084395855181E-01 1.122133033528E+00 1.612779177700E-02 -1.427698527715E+00 -1.998771599323E-01 3.380021251119E-01 2.260650858212E+00
 -4.230404153594E-01 -6.665674966409E-01 -2.661552442141E-01 -5.517841038473E-01 -1.695509659550E-02 -4.046866191893E-01 -5.816838381924E-01 -1.129203747083E-01 8.368560489682E-01 3.521890642044E-01 1.519484717053E+00 1.573525650309E+00 5.780885783239E-01 -1.304003098806E-01 3.547826310939E-02 2.623744852339E-02 3.170764013811E-01 -5.023341669007E-01 4.389982725597E-01 -5.395626851616E-02 3.700352400994E-01 5.625989251448E-01 1.594948739759E-01 -9.546321918833E-01 5.153739914737E-01 -1.530335020552E+00 -1.078417485507E+00 -1.630726660570E-01 -4.520906329893E-02 1.183312346953E-02 -4.304280447588E-01 -4.206684915177E-02 -2.079866308700E-01 -6.327542474291E-02 -4.039305458809E-02 1.260019601330E-01 -6.316191090567E-01 -3.768014720320E-01 1.803422211235E-01 4.306346988005E-01 1.697316431579E-01 2.100629009434E-01 -2.809433990356E-01 3.707500845994E-01 -4.440981495280E-01 -2.143861406411E-02 -4.613533817652E-01 -1.999897827254E-01 -2.030705592165E-01 -2.437426572834E-01 4.872454111432E-01 5.075462801368E-01 1.228054755174E+00
 -1.034410312843E-01 -2.257949693518E-01 -7.434789968797E-01 -2.949797503743E-01 -6.074148327598E-02 3.098674278515E-01 4.328166112933E-01 2.215742894826E-01 3.876991673316E-01 1.673472763200E-02 6.099643269162E-01 1.108301166509E+00 2.221396090681E-01 1.293975921751E-01 -4.571080065830E-01 -1.134062403048E+00 -2.499033550483E-01 -6.771016989680E-01 -1.797399803862E-01 -3.345709306466E-01 3.392628887570E-01 3.838813616111E-01 -9.888551324510E-02 4.662618165586E-01 2.482720211671E-01 -5.291534932176E-01 -8.339514012370E-01 -8.200669536429E-01 -7.478918437833E-01 8.148683956535E-03 1.347458480436E-01 4.759773754470E-01 1.108230138664E+00 6.404685913902E-01 1.994908623326E-01 2.226135429574E-01 4.348784013587E-01 1.038542693989E+00 -5.075408318559E-01 2.369987079999E-01 -5.548583087852E-01 -6.795372518738E-01 -8.675344594607E-01 -5.624721408060E-02 -3.747575430126E-01 3.315582013280E-01 -3.116921966879E-02 -1.480706857030E-01 -1.851865524442E-01 3.797261136459E-02 -4.872039632865E-01 5.874033945120E-01 1.701008067049E-01 1.030856390516E+00