 Job started on host yaesakura
 at Sun Jul 21 17:43:22 2019

 +-------------------------------------------------+
 |                                                 |
 |      CCC   AA    SSS  TTTTT  EEEEE  PPPP        |
 |     C     A  A  S       T    E      P   P       |
 |     C     AAAA   SS     T    EEE    PPPP        |
 |     C     A  A     S    T    E      P           |
 |      CCC  A  A  SSS     T    EEEEE  P           |
 |                                                 |
 +-------------------------------------------------+
 |                                                 |
 | Materials Studio CASTEP version 2017            |
 | Ab Initio Total Energy Program                  |
 |                                                 |
 | Authors:                                        |
 | M. Segall, M. Probert, C. Pickard, P. Hasnip,   |
 | S. Clark, K. Refson, J. R. Yates, M. Payne      |
 |                                                 |
 | Contributors:                                   |
 | P. Lindan, P. Haynes, J. White, V. Milman,      |
 | N. Govind, M. Gibson, P. Tulip, V. Cocula,      |
 | B. Montanari, D. Quigley, M. Glover,            |
 | L. Bernasconi, A. Perlov, M. Plummer,           |
 | E. McNellis, J. Meyer, J. Gale, D. Jochym       |
 | J. Aarons, B. Walker, R. Gillen, D. Jones       |
 | T. Green, I. J. Bush, C. J. Armstrong,          |
 | E. J. Higgins, E. L. Brown, M. S. McFly         |
 |                                                 |
 | Copyright (c) 2000 - 2016                       |
 |                                                 |
 | Please cite                                     |
 |                                                 |
 |     "First principles methods using CASTEP"     |
 |                                                 |
 |         Zeitschrift fuer Kristallographie       |
 |           220(5-6) pp. 567-570 (2005)           |
 |                                                 |
 | S. J. Clark, M. D. Segall, C. J. Pickard,       |
 | P. J. Hasnip, M. J. Probert, K. Refson,         |
 | M. C. Payne                                     |
 |                                                 |
 |       in all publications arising from          |
 |              your use of CASTEP                 |
 |                                                 |
 +-------------------------------------------------+
 
 
 This version was compiled for x86_64-windows-msvc2008 on May 05 2016
 Intel(R) Math Kernel Library Version 11.1.2 
 Fundamental constants values: CODATA 2010
 
License checkout of MS_castep successful
 
Reading continuation data from model file AlAs_BandStr.check
 
 Atomic calculation performed for Al: 1s2 2s2 2p6 3s2 3p1
 
 Converged in 54 iterations to an ae energy of -6603.782 eV
 
 Identity difference: 7.22E-05
 
   ============================================================                
   | Pseudopotential Report - Date of generation 21-07-2019   |                
   ------------------------------------------------------------                
   | Element: Al Ionic charge:  3.00 Level of theory: PBE     |                
   | Atomic Solver: Koelling-Harmon                           |                
   |                                                          |                
   |               Reference Electronic Structure             |                
   |         Orbital         Occupation         Energy        |                
   |            3s              2.000           -0.285        |                
   |            3p              1.000           -0.100        |                
   |                                                          |                
   |                 Pseudopotential Definition               |                
   |        Beta     l      e      Rc     scheme   norm       |                
   |          1      0   -0.285   2.000     qc      0         |                
   |          2      0    0.250   2.000     qc      0         |                
   |          3      1   -0.100   2.000     qc      0         |                
   |          4      1    0.250   2.000     qc      0         |                
   |          5      2    0.000   2.000     qc      0         |                
   |          6      2    0.250   2.000     qc      0         |                
   |         loc     3    0.000   2.000     pn      0         |                
   |                                                          |                
   | Augmentation charge Rinner = 1.398                       |                
   | Partial core correction Rc = 1.398                       |                
   ------------------------------------------------------------                
   | "3|2|3.5|5|7|30UU:31UU:32UU[]"                           |                
   ------------------------------------------------------------                
   |      Author: Chris J. Pickard, Cambridge University      |                
   ============================================================                
 
 Doing a self consistent calculation for the test configuration
 
 Atomic calculation performed for Al: 1s2 2s2 2p6 3s2 3p1
 
 Converged in 54 iterations to an ae energy of -6603.782 eV
 
 ---------------------------------------
 AE eigenvalue nl 10 =      -55.53347827
 AE eigenvalue nl 20 =       -3.97499262
 AE eigenvalue nl 21 =       -2.55933606
 AE eigenvalue nl 30 =       -0.28491403
 AE eigenvalue nl 31 =       -0.09966789
 ---------------------------------------
 PS eigenvalue nl 30 =       -0.28483650
 PS eigenvalue nl 31 =       -0.09959186
 ---------------------------------------
 Maximum eigenvalue error:   7.75E-05
 
 Derived cutoff energies: C=   1 M=   2 F=   4 E=   6
 
 
 ***************************************
 
 Atomic calculation performed for As: 1s2 2s2 2p6 3s2 3p6 3d10 4s2 4p3
 
 Converged in 83 iterations to an ae energy of -61519.637 eV
 
 Identity difference: 1.25E-03
 
   ============================================================                
   | Pseudopotential Report - Date of generation 21-07-2019   |                
   ------------------------------------------------------------                
   | Element: As Ionic charge: 15.00 Level of theory: PBE     |                
   | Atomic Solver: Koelling-Harmon                           |                
   |                                                          |                
   |               Reference Electronic Structure             |                
   |         Orbital         Occupation         Energy        |                
   |            3d             10.000           -1.494        |                
   |            4s              2.000           -0.533        |                
   |            4p              3.000           -0.191        |                
   |                                                          |                
   |                 Pseudopotential Definition               |                
   |        Beta     l      e      Rc     scheme   norm       |                
   |          1      0   -0.533   2.004     qc      0         |                
   |          2      0    0.250   2.004     qc      0         |                
   |          3      1   -0.191   2.004     qc      0         |                
   |          4      1    0.250   2.004     qc      0         |                
   |          5      2   -1.494   2.004     qc      0         |                
   |          6      2    0.250   2.004     qc      0         |                
   |         loc     3    0.000   2.004     pn      0         |                
   |                                                          |                
   | Augmentation charge Rinner = 1.400                       |                
   | Partial core correction Rc = 1.400                       |                
   ------------------------------------------------------------                
   | "3|2|11|13|15|40UU:41UU:32UU(qc=6)[]"                    |                
   ------------------------------------------------------------                
   |      Author: Chris J. Pickard, Cambridge University      |                
   ============================================================                
 
 Doing a self consistent calculation for the test configuration
 
 Atomic calculation performed for As: 1s2 2s2 2p6 3s2 3p6 3d10 4s2 4p3
 
 Converged in 83 iterations to an ae energy of -61519.637 eV
 
 ---------------------------------------
 AE eigenvalue nl 10 =     -430.68412655
 AE eigenvalue nl 20 =      -54.63735653
 AE eigenvalue nl 21 =      -47.90835310
 AE eigenvalue nl 30 =       -6.99359359
 AE eigenvalue nl 31 =       -4.91255859
 AE eigenvalue nl 32 =       -1.49369723
 AE eigenvalue nl 40 =       -0.53265250
 AE eigenvalue nl 41 =       -0.19091343
 ---------------------------------------
 PS eigenvalue nl 32 =       -1.49282298
 PS eigenvalue nl 40 =       -0.53264789
 PS eigenvalue nl 41 =       -0.19090125
 ---------------------------------------
 Maximum eigenvalue error:   8.74E-04
 
 Derived cutoff energies: C=  10 M=  12 F=  12 E=  16
 
 
 ***************************************
 
 Pseudo atomic calculation performed for Al 3s2 3p1
 
 Converged in 15 iterations to a total energy of -107.1301 eV
 
 
 Pseudo atomic calculation performed for As 3d10 4s2 4p3
 
 Converged in 24 iterations to a total energy of -2957.4236 eV
 
Initialising basis set for model.
Reinitialising basis set for current geometry.
Continuing from previous run with ground state wavefunction.
Continuing from previous run with ground state density.
 Info: SPECTRAL_NBANDS modified from         32 to         21
 Info: SPECTRAL_EIGENVALUE_TOL modified from    0.1000000000000000E-05 eV to    0.1000000000000000E-04 eV
 Calculation parallelised over 6 processes.
 Data is distributed by k-point(6-way)

 ************************************ Title ************************************
 CASTEP calculation from Materials Studio

 ***************************** General Parameters ******************************
  
 output verbosity                               : normal  (1)
 continuing from                                : AlAs_BandStr.check
 write checkpoint data to                       : AlAs_BandStr.check
 type of calculation                            : Electronic Spectroscopy
 stress calculation                             : off
 density difference calculation                 : off
 electron localisation func (ELF) calculation   : off
 Hirshfeld analysis                             : off
 unlimited duration calculation
 timing information                             : on
 memory usage estimate                          : on
 write final potential to formatted file        : off
 write final density to formatted file          : off
 write BibTeX reference list                    : on
 write OTFG pseudopotential files               : on
 checkpoint writing                             : both castep_bin and check files
  
 output         length unit                     : A
 output           mass unit                     : amu
 output           time unit                     : ps
 output         charge unit                     : e
 output           spin unit                     : hbar/2
 output         energy unit                     : eV
 output          force unit                     : eV/A
 output       velocity unit                     : A/ps
 output       pressure unit                     : GPa
 output     inv_length unit                     : 1/A
 output      frequency unit                     : cm-1
 output force constant unit                     : eV/A**2
 output         volume unit                     : A**3
 output   IR intensity unit                     : (D/A)**2/amu
 output         dipole unit                     : D
 output         efield unit                     : eV/A/e
 output        entropy unit                     : J/mol/K
  
 wavefunctions paging                           : none
 random number generator seed                   :  174245884
 data distribution                              : optimal for this architecture
 optimization strategy                          : balance speed and memory

 *********************** Exchange-Correlation Parameters ***********************
  
 using functional                               : Perdew Burke Ernzerhof
 relativistic treatment                         : Koelling-Harmon
 DFT+D: Semi-empirical dispersion correction    : off

 ************************* Pseudopotential Parameters **************************
  
 pseudopotential representation                 : reciprocal space
 <beta|phi> representation                      : reciprocal space
 spin-orbit coupling                            : off

 **************************** Basis Set Parameters *****************************
  
 plane wave basis set cut-off                   :   408.2000   eV
 size of standard grid                          :     1.7500
 size of   fine   grid                          :     2.1000
 size of   fine   gmax                          :    21.7367   1/A
 largest prime factor in FFT                    :          5
 finite basis set correction                    : none

 **************************** Electronic Parameters ****************************
  
 number of  electrons                           :  18.00    
 net charge of system                           :  0.000    
 treating system as non-spin-polarized
 number of bands                                :         13

 ********************* Electronic Minimization Parameters **********************
  
 Method: Treating system as metallic with density mixing treatment of electrons,
         and number of  SD  steps               :          1
         and number of  CG  steps               :          4
  
 total energy / atom convergence tol.           : 0.1000E-05   eV
 eigen-energy convergence tolerance             : 0.1538E-06   eV
 max force / atom convergence tol.              : ignored
 convergence tolerance window                   :          3   cycles
 max. number of SCF cycles                      :        100
 number of fixed-spin iterations                :         10
 smearing scheme                                : Gaussian
 smearing width                                 : 0.1000       eV
 Fermi energy convergence tolerance             : 0.2721E-13   eV
 periodic dipole correction                     : NONE

 ************************** Density Mixing Parameters **************************
  
 density-mixing scheme                          : Pulay
 max. length of mixing history                  :         20
 charge density mixing amplitude                : 0.5000    
 cut-off energy for mixing                      :  408.2       eV
 charge density mixing g-vector                 :  1.500       1/A

 ********************* Electronic Spectroscopy Parameters **********************
  
 electronic spectroscopy with theory level      : DFT       
 spectroscopy calculation                       : band structure
 max. number of iterations                      :         60
 max. steps per iteration                       :          5
 number of bands / k-point                      :         21
 band convergence tolerance                     : 0.1000E-04   eV
 write orbitals file                            : off

 *******************************************************************************
  
 
                           -------------------------------
                                      Unit Cell
                           -------------------------------
        Real Lattice(A)                      Reciprocal Lattice(1/A)
   0.0000000   2.8660667   2.8660667       -1.0961338   1.0961338   1.0961338
   2.8660667   0.0000000   2.8660667        1.0961338  -1.0961338   1.0961338
   2.8660667   2.8660667  -0.0000000        1.0961338   1.0961338  -1.0961338
 
                       Lattice parameters(A)       Cell Angles
                    a =    4.053230          alpha =   60.000000
                    b =    4.053230          beta  =   60.000000
                    c =    4.053230          gamma =   60.000000
 
                       Current cell volume =   47.085683       A**3
 
                           -------------------------------
                                     Cell Contents
                           -------------------------------
                         Total number of ions in cell =    2
                      Total number of species in cell =    2
                        Max number of any one species =    1
 
            xxxxxxxxxxxxxxxxxxxxxxxxxxxxxxxxxxxxxxxxxxxxxxxxxxxxxxxxxxxx
            x  Element    Atom        Fractional coordinates of atoms  x
            x            Number           u          v          w      x
            x----------------------------------------------------------x
            x  Al           1         0.000000   0.000000   0.000000   x 
            x  As           1         0.250000   0.250000   0.250000   x 
            xxxxxxxxxxxxxxxxxxxxxxxxxxxxxxxxxxxxxxxxxxxxxxxxxxxxxxxxxxxx
 
 
                         No user defined ionic velocities
 
                           -------------------------------
                                   Details of Species
                           -------------------------------
 
                               Mass of species in AMU
                                    Al   26.9820004
                                    As   74.9219971
 
                          Electric Quadrupole Moment (Barn)
                                    Al    0.1466000 Isotope 27
                                    As    0.3140000 Isotope 75
 
                          Files used for pseudopotentials:
                                    Al 3|2|3.5|5|7|30UU:31UU:32UU[]
                                    As 3|2|11|13|15|40UU:41UU:32UU(qc=6)[]
 
                           -------------------------------
                              k-Points For BZ Sampling
                           -------------------------------
                       MP grid size for SCF calculation is  8  8  8
                            with an offset of   0.000  0.000  0.000
                       Number of kpoints used =            60
 
                           -------------------------------
                               Symmetry and Constraints
                           -------------------------------
 
                      Maximum deviation from symmetry =  0.00000         ANG
 
                      Number of symmetry operations   =          24
         There are no ionic constraints specified or generated for this cell
                      Point group of crystal =    30: Td, -43m, -4 3 m
                      Space group of crystal =   216: F-43m, F -4 2 3
 
             Set iprint > 1 for details on symmetry rotations/translations
 
                         Centre of mass is NOT constrained
 
                         Number of cell constraints= 5
                         Cell constraints are:  1 1 1 0 0 0
 
                         External pressure/stress (GPa)
                          0.00000   0.00000   0.00000
                                    0.00000   0.00000
                                              0.00000
 
+---------------- MEMORY AND SCRATCH DISK ESTIMATES PER PROCESS --------------+
|                                                     Memory          Disk    |
|                                               ----------------------------- |
| Approx. total storage required per process           43.7 MB        24.4 MB |
|                                                                             |
| Requirements will fluctuate during execution and may exceed these estimates |
+-----------------------------------------------------------------------------+
 
  =====================================================================
  +                                                                   +
  +                 Calculation of Spectral Properties                +
  +                                                                   +
  + Calculation re-parallelised over 6 processes.                     +
  + Data distributed by G-vector(3-way), k-point(2-way), band(1-way)  +
  + Data distributed by G-vector(3-way), k-point(2-way)               +
  +                                                                   +
  =====================================================================
  Starting k-point:        1 of       20 on this process      |<-- SPEC
  Starting k-point:        2 of       20 on this process      |<-- SPEC
  Starting k-point:        3 of       20 on this process      |<-- SPEC
  Starting k-point:        4 of       20 on this process      |<-- SPEC
  Starting k-point:        5 of       20 on this process      |<-- SPEC
  Starting k-point:        6 of       20 on this process      |<-- SPEC
  Starting k-point:        7 of       20 on this process      |<-- SPEC
  Starting k-point:        8 of       20 on this process      |<-- SPEC
  Starting k-point:        9 of       20 on this process      |<-- SPEC
  Starting k-point:       10 of       20 on this process      |<-- SPEC
  Starting k-point:       11 of       20 on this process      |<-- SPEC
  Starting k-point:       12 of       20 on this process      |<-- SPEC
  Starting k-point:       13 of       20 on this process      |<-- SPEC
  Starting k-point:       14 of       20 on this process      |<-- SPEC
  Starting k-point:       15 of       20 on this process      |<-- SPEC
  Starting k-point:       16 of       20 on this process      |<-- SPEC
  Starting k-point:       17 of       20 on this process      |<-- SPEC
  Starting k-point:       18 of       20 on this process      |<-- SPEC
  Starting k-point:       19 of       20 on this process      |<-- SPEC
  Starting k-point:       20 of       20 on this process      |<-- SPEC
  Total time to compute matrix elements              7.92 sec |<-- SPEC
  
  + Calculation re-parallelised over 6 processes.                     +
  + Data distributed by k-point(6-way)                                +
 
 ***************** Symmetrised Forces *****************
 *                                                    *
 *            Cartesian components (eV/A)             *
 * -------------------------------------------------- *
 *                   x            y            z      *
 *                                                    *
 * Al        1      0.00000      0.00000      0.00000 *
 * As        1     -0.00000     -0.00000      0.00000 *
 *                                                    *
 ******************************************************

Writing analysis data to AlAs_BandStr.castep_bin

Writing model to AlAs_BandStr.check
 
 A BibTeX formatted list of references used in this run has been written to 
 AlAs_BandStr.bib
 
Initialisation time =     18.77 s
Calculation time    =     13.67 s
Finalisation time   =      0.12 s
Total time          =     32.56 s
  
Overall parallel efficiency rating: Poor (44%)                                  
  
Data was distributed by:-
k-point (6-way); efficiency rating: Poor (48%)                                  
  
Parallel notes:
1) Calculation only took 32.5 s, so efficiency estimates may be inaccurate.     
