#BIOSYM hessian 1
@Type: Hessian Update
@Units
 distance: 	A
 energy: 	Kcal/Mol
#header
@natom 19

#label
L1      L2      L3      L4      L5      L6      L7      L8      L9      L10     L11     L12     L13     L14     L15     L16     L17     L18     L19

#element
Li Li Li Li Li Li Li Li Li Li Li Li Li Li Li Li Li Li Li

#matrix
57
 1.187772845118E+01
 3.018599081037E+00 2.566065141957E+01
 4.818968433187E+00 8.103562997839E+00 1.698870211927E+01
 -4.200368285208E-01 -1.499209824625E+00 -6.554197908896E-01 1.696857508540E+01
 -9.987143305053E-01 8.437341377680E-02 1.908060458940E-01 -4.206179979891E+00 2.847250479182E+01
 -1.307112081264E+00 2.329833622952E+00 5.388757621353E-01 5.952994349265E-01 -3.178858061984E+00 3.761411212653E+01
 5.880888820701E-01 2.244595301314E-01 6.454771865719E-01 -1.587418852711E+00 2.996423290792E+00 -2.655930556055E+00 1.702707405748E+01
 -9.543194202313E-01 -1.776211440020E-01 -2.114205512059E-01 3.598672254723E+00 -5.865390701838E+00 8.547696763632E+00 -3.976770111537E+00 7.926716559149E+00
 -1.152067568978E-04 7.209785978241E-01 1.842910979124E-01 -3.756208290040E+00 7.275267430549E+00 -8.604509398455E+00 9.328402702033E+00 -8.448867334352E+00 1.444784091295E+01
 -1.048829974931E+00 -9.879292521553E-01 1.141092541659E+00 9.895404511921E-01 6.281849356686E-01 1.586085427486E+00 1.612051243423E+00 1.954870684561E-01 -1.859491427791E-01 1.857205216872E+01
 -5.319228803216E-01 -2.619206951676E+00 1.031010309830E+00 5.342891508565E-01 -7.406297429729E-01 -1.937933166007E+00 -3.993259982294E-01 1.112639613006E+00 3.281149103420E-01 1.227024554098E+00 1.274043432586E+01
 -3.797683701868E-01 1.474964161457E+00 -1.153866231096E+00 -4.470917534307E-01 -3.527695158783E-01 2.488498412160E+00 2.114858818267E+00 -4.802741606631E-01 9.884032161780E-01 -1.438788979237E+00 -3.604552877139E+00 2.356477056599E+01
 -1.273615467063E+00 -2.081671807909E+00 1.075792992789E+00 -1.631380582687E+00 1.845667101166E+00 -3.006865181751E+00 -1.865800217553E-01 9.945942625027E-01 4.699722431249E-01 -2.380714839614E-02 -3.349060649355E-01 2.026413279316E-01 2.588983409389E+01
 -1.780434981617E-01 -2.062615503047E+00 -2.031699529469E-04 4.230645884157E+00 -8.080321588734E+00 6.411582133248E+00 1.421857056655E-01 6.422077619805E-03 -4.386441681457E-01 -2.151565757985E-01 -1.876221335559E-01 9.563191898893E-01 -9.150880859943E-01 1.689594741960E+01
 1.549308717385E+00 3.339789452610E-01 -2.323992235307E+00 -1.703786831493E+00 5.067011906182E+00 -1.975556684895E+00 7.329595676512E-01 -4.642315932163E-02 -8.151194902552E-01 4.853355079070E-03 -1.471848867724E-01 -4.152284320765E-01 -1.669459775035E+00 -7.019686233287E+00 1.139454110829E+01
 -8.213312315807E-01 -5.743375607986E-01 -8.425436554050E-01 -8.942905452889E-01 -5.581274799364E-01 2.322148837863E+00 -2.139328054051E+00 9.117050301290E-02 6.746958564960E-02 7.839944792394E-01 2.564206106842E-01 1.306421084957E+00 1.654169447641E-01 -5.012667943300E-01 -6.240046634656E-01 2.014964542606E+01
 8.874076290088E-01 9.061599243049E-03 1.722677496498E+00 -1.401848236266E+00 -9.998176837168E+00 -5.276139346088E+00 -1.330127074536E+00 -1.730622786988E+00 -8.598206207442E-01 -4.474294024861E-01 1.322619903962E+00 -1.306692802106E+00 1.534633165728E+00 2.665995833311E-01 -2.236283557408E-01 -1.635855779379E+00 1.838086973598E+01
 2.265445705581E-01 -1.487560050417E+00 -2.939086879087E-01 -8.101140514743E-01 -2.746268736116E+00 -1.263538193306E+00 2.481908033394E-01 -8.518087647814E-01 -1.439452458367E+00 -4.505798267406E-01 -5.337100179874E-01 2.808887455789E-01 -1.110944324528E+00 3.676288667174E-01 1.100787896331E+00 3.888580044451E+00 5.706735437545E+00 9.548602225510E+00
 1.655815368804E-01 1.364332721756E+00 -1.370974676198E+00 -2.306758792807E+00 -3.612844777650E+00 5.383250212946E-01 -1.266754117597E+01 1.062208150422E+00 -5.944948113520E+00 -2.739995904529E+00 1.056105994247E+00 -1.249128444115E+00 1.504618944814E+00 1.451134189873E+00 6.268708687835E-01 -4.688638325371E+00 3.428294998725E+00 6.745927849823E-01 2.043978198431E+01
 7.046830839938E-02 9.664071111881E-01 -7.935693542605E-03 -2.675606150056E+00 -2.000195408866E+00 1.966873982089E+00 1.734089559210E+00 -8.470364516750E-02 -9.815198123525E-01 3.652964807668E+00 -3.992286842488E+00 -8.003038425578E-01 -2.531279450865E+00 5.716096108849E-01 -8.339669783963E-01 8.111123025093E-01 -2.254294143196E+00 1.974178596708E+00 -1.016315218139E+00 9.686302477151E+00
 -1.079950825350E+00 -9.710238160696E-01 3.103007822721E-01 1.574483255604E+00 2.855674396451E+00 -2.298024453853E+00 -6.005833148519E+00 -7.540186095006E-02 -3.033048917055E+00 9.401765183837E-01 -7.884951086529E-01 -1.172527947455E+00 8.271194047310E-01 7.108498954348E-01 2.399788247331E+00 1.740991451685E+00 -1.965324838855E+00 2.352265888068E-01 2.483790796850E+00 -1.218817806749E-04 1.936905168030E+01
 -5.311399417691E+00 -2.608536784050E+00 -7.062530075825E-01 -6.068445846197E-01 1.168695546135E-01 -1.145870407958E+00 -5.068924302638E-01 2.995755872505E-01 -1.300548324436E+00 -3.468275957175E+00 2.163945678902E+00 -3.075321956579E+00 6.082457704720E-01 1.483882586597E-01 -1.386871050982E-01 9.426571148723E-01 -1.541926471384E+00 8.679577450408E-01 2.230205103976E+00 -5.865893431462E-01 2.013616131672E+00 2.179457313020E+01
 -4.046515247578E+00 -3.013820834899E+00 -1.735111292998E+00 -3.073794683459E-01 -7.916835965787E-01 9.292864920503E-01 5.953773332030E-01 -5.401174501220E-03 6.178471574890E-01 3.146566255785E+00 -4.445670635577E+00 4.374217630677E+00 -1.947267044462E-02 5.904619641222E-01 -5.089542997062E-01 1.856301424107E+00 1.759889987832E-01 -1.251639308950E+00 -6.809952553120E-02 1.087698388522E+00 8.168817384499E-01 -4.311320646520E+00 1.511130047495E+01
 -9.004897717285E-01 -2.207297118227E-01 -2.035695117992E+00 -1.497361973370E-01 3.952047526963E-01 -1.860427947302E+00 -6.245186429842E-01 -1.164958258440E-01 5.858921156065E-01 -3.099520571554E+00 2.826872266933E+00 -6.179164304889E+00 8.680766861741E-01 -1.299257404469E+00 2.207449602791E-01 4.133083826315E-01 5.243793005443E-01 -2.045829655703E+00 -8.697702662189E-02 6.897108020738E-01 5.620956775476E-02 -3.853085126290E+00 4.515197766779E-01 2.138098997687E+01
 3.863876671984E-01 2.974953093158E-01 -6.564801566796E-01 -3.224537909793E-01 1.148680991423E+00 8.202430020529E-01 -9.780549413428E-01 2.716007892460E-01 -2.545262193105E-01 -8.639425043964E-01 -7.120554639484E-01 1.325426579495E+00 -1.072386140424E+00 9.363493418193E-01 7.429155598994E-01 5.751078865671E-02 1.237460294736E-01 9.638526304077E-01 -1.755429675020E-01 9.570002189492E-01 3.379120408938E-01 -1.619692877630E+00 3.117735597053E-01 -9.473494786287E-01 1.935388902139E+01
 2.840497990738E-02 -1.351571586997E+00 -1.828175722619E+00 -3.221731054880E-01 -1.048704659166E+00 -7.422210969852E-01 -2.590511958857E-01 2.158768176056E-01 -4.295334745935E-01 -6.278528749607E-01 -1.197895438556E+00 1.304815687286E+00 8.792714185199E-01 -1.133792576306E+00 2.881080683013E-01 1.294526651522E+00 -2.002322521561E-01 -1.740412145063E+00 -1.478174139550E+00 -1.032304860346E+00 -6.874858138962E-02 2.795967648102E-01 -2.465422172430E-01 -1.253542183256E+00 2.314793878620E+00 1.056753624285E+01
 -3.225740538192E-01 -1.018437498235E+00 -5.643385495978E-02 2.462782848403E-01 -2.436609839962E-01 -1.319686596209E+01 -8.371061874383E-01 -8.750294490533E-01 -2.396580937043E-01 -8.364833575851E-01 1.769521447639E+00 -2.325427081653E+00 2.076015076277E+00 -1.291613134900E+00 -2.557708983102E+00 -1.852433697590E+00 4.739136644997E-01 2.496357408104E-01 1.273152269304E+00 -9.904337370738E-01 -2.081409568825E+00 1.718055054512E+00 -3.518105004689E-01 1.856634596664E+00 -4.526982285139E+00 2.639851616951E+00 2.076308845328E+01
 5.613159234186E-01 1.359244135992E+00 -1.128391861130E-01 2.470795523555E-01 1.508468406288E-01 -1.205374210481E+00 7.407135780099E-01 1.000849351959E+00 1.809455985100E-01 2.746881614884E-02 -1.254473591198E+00 7.720333255091E-01 1.175984888779E+00 -1.089247375367E+00 -2.587615036873E-01 -6.945883139014E+00 -2.830324216566E+00 -6.633717321855E-01 -1.327061275046E+00 5.771217421279E-01 3.780703542478E-01 -1.175439703451E+00 -2.593997899922E-01 -1.101847006991E+00 -1.169378859690E+00 2.760777652161E-01 2.171927350341E+00 1.372558625552E+01
 7.911645339599E-01 7.710303101407E-01 6.989473499343E-01 8.880563569648E-01 7.046487308653E-01 2.661138967417E+00 -7.330317456078E-01 3.044869951758E-01 -1.495810741422E+00 3.303219020439E-01 -3.977136587662E-01 -8.916274344543E-01 2.469968311147E+00 -3.361038298872E-01 -8.278513295832E-01 -3.704990536959E+00 -1.604053653789E+00 -2.277312126800E+00 -1.900714777028E+00 -2.774770789972E-01 5.880410550814E-01 2.164079489970E-01 -8.350239681500E-01 2.566738729880E-01 5.493261536337E-01 6.312723757024E-01 -3.556420933533E-02 1.532169740009E+00 2.179324573012E+01
 7.284639123240E-01 1.361462481954E+00 1.290016694238E+00 -2.278716589586E-01 -1.012850175237E+00 -9.753512461711E-02 2.753911769126E-01 1.320288403251E+00 6.729735363945E-01 2.081069914575E-01 2.156263448568E-02 -1.293555351475E+00 1.632229011171E+00 -5.328095168548E-01 -3.612445320024E-01 -1.103742777342E+00 -8.557471973790E-01 -1.467878823443E+00 -2.479043251438E-01 1.606722161836E-01 -1.012809390932E+00 -1.847287027153E+00 -6.143585508886E-01 6.437516789405E-01 -5.406359387811E-01 1.541382675193E+00 7.463814779653E-01 5.609225133164E-01 -5.458123613569E+00 1.268225242060E+01
 -2.567388079249E-01 1.123322681187E+00 4.766990280430E-01 -3.235022928820E-01 8.891808818373E-01 1.980438114013E-01 -1.332286600286E-01 -9.579282970184E-02 2.788521095150E-02 -2.384420265672E-01 -9.824250378869E-01 -1.542231699533E+00 2.284498454386E-01 -7.678956627428E-01 4.225821261589E-02 2.523736473029E+00 -2.125657225558E+00 -1.418010917817E+00 6.340155668642E-01 -8.186290572062E-01 -3.638502759185E-01 -3.614932906687E+00 -2.034958514167E-01 -7.921316796058E-01 -5.675660632126E-01 3.414243576097E-01 -4.766961128685E-01 -4.636461174749E+00 4.933484702311E+00 6.357088437783E-01 1.228669724217E+01
 2.413119661014E-01 -6.477697611248E-01 -5.392155413454E-02 -6.127659279447E-01 6.615941742424E-01 2.590853305801E-01 -9.283969837260E-01 3.742291555781E-01 2.187143246777E-01 -1.128083475164E+00 -1.599252057256E+00 -1.677696498243E+00 3.880375862753E-01 5.102788650190E-01 3.475947459188E-01 -9.497001556816E-01 7.869601371205E-02 -1.094613332533E-01 2.057680298118E+00 -2.003909715601E+00 -4.054774272823E-01 1.369314015583E-01 -2.567525387438E+00 -5.922973200979E-02 -3.129065166900E-01 6.976549883659E-01 2.531225663455E-01 3.979002300838E+00 -2.019267766535E+00 -1.407406361260E+00 1.037766760047E+00 2.103463795846E+01
 -1.198189519971E-01 -1.338813355514E+00 5.149919671713E-01 -3.211135548457E-01 3.163686498017E-01 -3.328002886438E-01 -9.035690817917E-01 -1.223979422606E+00 -4.540739252567E-01 -1.333818141073E+00 -1.519553829113E+00 -5.543555445240E+00 -4.005851404028E-01 -1.613537111392E-01 -4.423871676044E-01 4.929781361848E-01 -4.367115343781E-01 2.034276027997E+00 1.172486224217E+00 -9.556419563739E-01 -5.659253914742E-01 1.653331250706E-01 -3.096635181802E-01 -1.469845182706E+00 -7.964000438544E-01 1.085442660374E+00 5.276922002162E-01 2.060235309414E+00 -1.070212305076E+00 -1.436042281058E+00 -2.433673936965E+00 -7.466167435520E-01 1.662343279899E+01
 -1.227258934943E+00 7.711252839637E-01 -2.008870598733E+00 -1.181550489092E+00 3.128907432213E+00 1.047816411573E+00 3.174056400496E-01 -4.365462022054E-01 3.334303801440E-01 1.965044972456E-01 -5.351791727518E-01 3.356924372286E-01 -1.029775844391E+01 2.873847666333E+00 -6.426734640056E-01 5.141805004845E-01 -1.675987512985E+00 6.461312010848E-01 -2.453137042510E+00 1.265665147028E+00 -1.356790308538E+00 -3.069126738095E+00 -1.157691329019E+00 1.463846840565E+00 -2.846933527079E-01 6.968592155253E-01 -8.242106223731E-01 -1.040964038696E+00 -2.139347391586E+00 6.868424366615E-02 -1.471936357601E-02 -1.568327662536E+00 9.441708961295E-01 1.874339129581E+01
 -4.040812461878E-01 -1.061123757940E+00 -4.939869532735E-01 -2.119985997466E-01 1.200259491130E+00 8.123574752807E-01 9.109143779136E-01 3.831165044466E-01 6.816036073921E-01 1.078178946884E-03 -1.122074556769E+00 1.133463569123E+00 5.022775880505E+00 -2.587401469980E+00 1.007991397159E+00 1.032873829922E+00 1.714528223962E-01 1.305808013120E+00 -1.655945272026E+00 1.515387996043E+00 -9.203962578343E-01 -9.883988651115E-01 -2.186163006400E+00 9.691757096908E-01 -1.716287473756E+00 -1.793626882875E-01 7.486273806320E-01 -1.283075562750E+00 -6.686240021456E-01 -4.475400474201E-01 -8.911198152043E-01 9.301296526981E-02 5.422262244383E-01 2.517392193521E-01 2.497825430330E+01
 -1.955637623596E+00 -7.098153736558E-01 -6.041795174818E+00 -5.580255989514E-01 9.684822790527E-01 -5.952352754146E-01 -1.295751699177E+00 4.509681773426E-01 6.624600649934E-02 -1.362225460142E+00 7.413165603150E-02 3.343687949545E-01 -1.072750354628E+00 1.303121003103E+00 -1.370466577314E-01 1.024521770071E+00 -1.074868537657E+00 -4.990320740810E-02 2.721442037864E+00 -1.813344643715E-01 5.695827575544E-01 8.748820600900E-01 2.946127682566E+00 -3.723558582722E+00 1.746159893905E+00 2.694087914940E-01 -4.532285582873E-01 -2.516542624147E-01 7.024489538000E-02 -6.084609838154E-01 -1.267826396710E+00 2.164110921607E-01 -3.008485404930E-05 2.758905049177E+00 -4.934447507647E+00 1.492922906328E+01
 3.629141541342E-01 -6.773974800898E-02 8.751853686561E-01 8.074504329721E-01 -4.239441262150E-01 1.696903795372E+00 -4.000963779639E-01 -6.602906465649E-01 -2.441806577493E-01 4.222140403783E-01 1.203356447087E+00 -1.025159148013E+00 -2.084943965942E+00 -1.267139025614E+00 -1.949104540224E+00 8.891009835359E-01 4.229684009404E-01 8.924305893552E-01 9.957981985850E-01 7.280770865292E-01 1.091178662511E+00 1.014671372590E+00 -5.441527964464E-01 1.663188224841E+00 -6.184617755010E+00 2.132583180444E+00 -2.715103171376E+00 -1.334078276675E-01 -1.313621935974E+00 -1.227136153596E-01 1.134165857956E+00 -8.001718077556E-01 -6.816088646769E-01 -2.822705007891E+00 2.108241011460E+00 -9.152156086983E-01 2.377203971136E+01
 -1.769382689141E-01 -1.068294831787E+00 -1.872127309805E-01 -7.656403614901E-02 -1.512972771305E-01 -1.629386371022E-01 -3.150009373581E-01 -6.529449474929E-01 1.167045583647E+00 -2.743250623385E-01 1.289159706957E+00 4.918795715486E-02 -3.254845418176E+00 -1.379763793625E+00 -1.716463023668E+00 3.039624290630E-03 -1.596852718074E+00 5.842961276440E-01 7.226879408065E-02 1.351344242392E+00 -1.172273666942E+00 1.112995667805E+00 -2.625914708239E-01 1.230168668617E-01 3.322615476658E+00 1.075074890252E-01 -2.608463119937E-01 1.782679154925E+00 3.651898176725E-01 9.188653359816E-01 5.532944613262E-01 -4.601388115246E-01 -1.067323916322E+00 1.604342793801E+00 -1.493631411205E+00 -8.388423327378E-01 -1.246809771516E+00 1.594359123881E+01
 3.606590872445E-01 1.077148828715E+00 -1.436619324704E+00 7.867087752360E-01 -2.482482381465E-01 6.550485319962E-01 9.494832238434E-01 4.954489591754E-01 -4.862930473438E-01 6.668108554731E-01 -8.022841743292E-01 3.511719572782E-01 -3.184770763840E+00 -3.602399629803E+00 -3.713697529665E+00 3.076317163857E-03 1.669062913724E-01 -6.991277907213E-01 -1.349249565600E+00 3.506650490092E-01 -4.291770852076E-01 -6.869065859961E-01 7.632639348689E-01 -6.545666441744E-01 -2.748672142935E+00 3.428051708542E-03 -7.935498895758E-01 -1.107161906128E+00 -2.758065429376E-01 -2.261801565569E-01 -5.722164401471E-01 -1.841608289016E-01 1.912536858043E+00 4.090903585341E-01 -2.242841250246E+00 -1.125082467199E+00 -1.468840577421E-01 -6.393149139169E+00 2.250602457746E+01
 1.729349978570E-01 1.128370153079E+00 7.582242139417E-01 -3.739956613849E-01 1.135490089294E+00 -2.689784274274E-01 -5.976553982941E-01 -1.881996509236E-01 -3.097033247355E-01 -4.456492928153E-01 1.897514925059E-02 6.316447141094E-01 9.058799360735E-01 -5.018934926163E-01 1.284569785301E-01 -1.315404398424E+00 -8.956347177925E-01 -1.102492453007E+00 7.434949054568E-01 -4.141403112572E-01 9.675117802875E-03 -4.230561930787E-01 7.992344887272E-01 -4.180093961470E-01 -2.593351242433E+00 -3.608841197573E+00 -1.309570642799E+00 -1.208284171820E+00 8.527737601873E-01 1.179331238498E+00 -6.714498386395E-01 -2.343928766551E-01 -5.561568133281E-01 -5.661108590929E-01 -1.653600171520E-01 1.095160538761E-01 -1.684609374573E+00 -1.235740441712E+00 9.738353312413E-01 1.842507504053E+01
 5.346496804587E-01 3.441030706199E-01 1.719777465146E+00 -1.935661779606E-01 -5.104722589955E-01 -9.466863443807E-01 2.364644478279E-01 2.271004586460E-01 2.639383136285E-01 1.002925125932E-02 1.336461905862E+00 -7.145846011445E-01 -4.676369251633E-01 -5.244115250222E-01 -1.573599939001E-01 -2.184445111900E-01 -8.433925063176E-01 -1.153002054794E+00 7.452433969150E-02 2.763802700880E-01 9.412060882331E-01 -6.109184569528E-01 2.630780237469E-01 1.489394060504E+00 -2.660564773035E+00 -8.191162232215E+00 -1.740124643117E+00 -3.415285773106E-01 -2.364979321457E+00 2.222042236838E+00 4.108128483565E-01 -1.138516048887E+00 -3.263780581541E-01 -2.143185918867E-01 9.301427783343E-01 -8.910354567790E-01 -1.465737796216E+00 -1.049073765081E+00 6.534231287527E-01 -2.335393242867E-02 1.604481694387E+01
 2.956667806917E-01 -1.258905874245E+00 2.830677417186E-01 6.388800042301E-01 -7.523170120416E-01 9.052108811822E-01 -7.014699462167E-01 7.450546366904E-01 -1.523059234506E+00 6.662780532426E-01 3.719220362092E-01 -6.036523504484E-01 -7.454917676582E-01 -6.444444702937E-02 -2.504190493463E-01 -2.743840449770E+00 -5.049873028961E-01 -5.959182601751E+00 -1.927124680787E-01 -4.781468695345E-01 3.228829056497E-01 -4.182639908622E-01 5.487048909962E-01 3.400489058314E-01 -9.177914209598E-01 -2.608417432706E+00 -1.686469700743E+00 1.428975715824E+00 1.560453303275E+00 -3.799787856511E+00 1.764373646882E+00 1.366773247028E-01 -4.002002416113E-01 -6.504216123065E-01 -5.008842728738E-01 1.332640123136E-01 -7.274000831733E-01 1.148062170893E-01 -6.556373943317E-01 -5.254359873858E+00 9.101490249505E+00 2.213772672023E+01
 1.577428999910E-01 -6.925018669529E-01 7.642873455825E-01 4.846809886904E-01 -2.454161691681E+00 1.071864501215E+00 -1.434226317384E-01 2.665303330786E-01 7.843220620696E-01 2.364998440700E-01 1.357656477425E+00 -1.206591651043E+00 -5.219485533615E-01 3.664129658436E-01 -8.694448825910E-01 -1.063909860818E+00 2.689695197042E+00 -9.792420786962E-01 9.169033765740E-01 -4.095484346588E-01 1.310276171482E+00 7.910160275270E-01 -1.258012391257E+00 2.000910744956E+00 2.043729878169E+00 2.367482762312E-02 -5.683733268323E-01 -3.055847400338E+00 8.774105562708E-01 -2.771247559679E+00 -1.473112031701E-01 -1.299446563620E+00 8.920439415958E-01 6.631786651855E-01 7.875986583399E-01 -4.033292223153E-01 -1.621411713832E+00 -2.220646084116E+00 -2.371017650753E-02 -9.577404938572E+00 1.660184053685E+00 1.675835382011E+00 2.177514006346E+01
 -1.463108992013E-01 -2.004384415714E-01 1.962025624740E-01 -5.241466929848E-01 -7.062655640074E-01 -2.701766836153E-01 -4.025436548715E-01 1.155071743950E+00 4.348280475886E-01 3.240157039067E-01 -5.726172251907E-01 -2.698106272710E-01 -4.289732131528E-01 -8.175691992170E-01 -2.448035287816E-01 -3.891870518759E-01 8.663665346097E-01 4.485509557393E-01 8.145954224595E-01 -2.920732188136E-01 6.287627737582E-01 -4.958599565900E-01 8.292526756534E-01 -5.812506147639E-01 -4.754037508176E-01 -1.294178260609E-01 6.685471843477E-01 2.608075686569E+00 -4.133445316067E+00 3.138166956020E+00 -9.159077188735E-01 -1.470942128613E+00 -1.070968437453E+00 4.511858751277E-01 6.915230740162E-02 -3.697512331263E-01 -9.239490308287E-01 -1.880737585655E+00 -6.651855994157E-01 1.423084668514E+00 -4.456941842863E-01 -1.660754993076E+00 -2.667132399750E+00 1.780071107827E+01
 -2.716185114492E-01 -3.594989939131E-01 -1.413152071486E-01 3.282081859522E-01 -1.706030929934E+00 1.243824493055E+00 -7.707261843852E-01 4.916804878833E-01 -3.517386979471E-01 1.438173530707E-01 7.265873576107E-01 -1.065900842574E+00 -7.000113852806E-01 -8.571151637365E-01 -7.580873132960E-01 2.961414890984E-01 2.197553584587E+00 -9.167540298727E-01 4.139754600763E-01 -1.277335995267E+00 1.871334614742E+00 4.303271446200E-01 -1.038777256048E-01 1.544019954773E+00 9.919560578711E-01 2.606184417728E-01 5.021727423011E-01 -4.074669843809E+00 2.385723186894E+00 -6.112099455951E+00 1.655946775761E+00 -8.788005478157E-01 -5.010875549086E+00 6.344395405159E-02 6.948101747075E-01 -2.466825084951E-01 -6.605107281576E-01 3.391415999373E-01 -1.280587581124E+00 1.997678728761E+00 -1.403379187571E+00 -1.190426395516E+00 3.855692972438E+00 4.888645606793E+00 1.592796846978E+01
 8.593084932164E-02 -3.487336098015E-02 -1.172044710025E+00 6.056555531291E-01 -2.266939893481E+00 1.574523405987E-01 1.014562723641E+00 2.780127506659E-01 -7.839521632996E-01 -1.108810338133E+00 -3.810168391208E-01 2.946961375457E-01 -8.783502205201E-02 6.913184219540E-01 3.584426127637E-01 -2.468500557009E-01 1.014392502032E+00 -1.494481098168E+00 1.886003046732E-02 1.068769123575E+00 4.761266660434E-01 -1.555256629183E+00 6.706500590326E-01 2.659935408263E+00 -2.332305880705E-01 5.528327682108E-02 8.673706089212E-01 4.005293489982E-01 6.310526754470E-01 -3.364274590456E-01 6.459608285565E-01 3.186755744962E+00 -1.378765034367E+00 -1.046645410827E+00 -5.400846320034E+00 -8.010011415756E-01 -1.119093515720E+01 -8.006046888113E-01 5.451648082381E+00 -2.863691984634E-01 3.621697342258E-01 5.949357507819E-01 -1.778228503535E+00 3.781079949928E+00 2.415015896609E+00 1.707181103716E+01
 1.569745714969E-01 1.578069824455E+00 6.836651540195E-01 1.197149202760E+00 -7.412274466378E-01 -9.129583417945E-01 2.052005908549E-01 -1.130083986557E+00 -1.359192264447E+00 6.730274630872E-01 1.578174358429E+00 -1.926229332133E+00 -4.375928470412E-01 1.116508205810E+00 -4.613492211047E-01 -1.636226433995E+00 3.070710369753E-01 -1.002931847801E+00 -8.813842162955E-01 -2.284204018134E+00 -9.581655217501E-02 1.637381831485E+00 -3.649300266580E+00 -3.462174883362E+00 5.066948170700E-01 -1.024333347755E-01 6.035981881828E-01 7.690333657249E-01 1.193208794439E+00 8.695267333013E-01 2.769851374721E+00 -3.362543791318E+00 4.742276563465E+00 -5.043016618073E+00 -1.369302894726E+01 -4.615433420554E-01 -1.263469098371E+00 -9.636045621185E-01 7.796467033955E-01 6.527787626687E-01 -3.375425204732E-01 1.028003228778E+00 2.971809693548E+00 -1.009934389918E+01 -5.898665252972E+00 4.979276159589E-01 2.881859513165E+01
 -7.585657410325E-02 -3.470484334286E-01 6.209840717601E-01 1.761213981645E-01 4.321638525402E-01 5.676415853470E-01 -4.590583015196E-01 -2.426866624729E-01 4.773913354744E-01 -8.510979024292E-01 1.196771349724E+00 2.003522547754E+00 -5.321423835425E-02 1.442942928715E+00 1.045880682962E+00 -1.334821643873E+00 7.831407781758E-01 1.583224707959E+00 5.567060916421E-02 -3.161006594903E-01 -1.075755078372E+00 4.559684647680E+00 -5.138183724127E+00 -8.655888444113E+00 1.534279256047E+00 -4.086653104566E-01 -8.938743329670E-01 1.497509927683E+00 9.695977711106E-01 4.414057844149E-01 1.266426765027E+00 3.777355129751E+00 -3.900644523423E+00 -5.709616451194E-01 -9.966739671868E-01 -4.849028255695E-01 3.845805710873E+00 6.708055261773E-01 -4.907099061246E+00 3.852233138822E-01 -1.381254967495E+00 -8.750946143097E-01 -1.169992802592E-01 -4.146896933010E+00 -2.736052584600E+00 -4.007539884992E+00 6.222363332152E+00 2.163178765987E+01
 -4.458087010313E+00 2.624862197947E+00 -1.301135813809E+00 -3.138483025220E+00 1.574203718686E+00 6.757153368174E+00 -3.438498446810E+00 2.748684810417E-01 3.994257083722E-02 -1.173199861178E+01 -2.097612153330E+00 7.429091897555E-01 -1.640901547934E+00 -4.565071878251E-01 3.040066779553E-01 7.375970835869E-01 1.139511472534E+00 9.355698216073E-01 5.158845987567E-01 -1.511077786891E+00 4.692632879802E-01 1.983272711055E-01 1.957359404338E-01 -2.965740995238E-01 1.712784652169E+00 1.086831343886E+00 3.957259242439E-01 7.300564386960E-01 -1.505235875471E+00 -2.966909452991E-01 -9.447575115443E-01 1.077156278049E+00 -6.236531977850E-02 1.307774520975E+00 2.469925894999E+00 5.966084529448E-01 -4.402282510580E-01 -7.099648201605E-01 -1.301725850813E+00 5.335437331399E-01 -1.154124275711E+00 -1.206904052926E+00 -1.266921043474E+00 1.376999342031E+00 -6.303907841761E-01 -6.825174708952E-01 -3.289474845958E+00 -6.052244362891E-01 2.491713527729E+01
 4.070776793591E+00 -6.398070266085E+00 7.702319459576E-01 1.901698887447E+00 -9.027794028720E-01 -6.247021345454E+00 1.578830387459E+00 -1.687627714890E+00 1.858788403140E+00 -3.453064112171E+00 -2.028085213935E+00 8.284161819407E-01 2.335382374325E-01 -6.581605021355E-01 -4.408618870135E-01 -1.499107744322E+00 1.035068774730E+00 -1.145029591841E+00 -1.413237325089E+00 -3.935058874870E+00 -3.230027404982E+00 1.550376557851E+00 3.303613260941E-01 3.216612115438E-01 -3.095146135978E-01 1.670239230080E-02 6.476954707586E-01 -6.962541590310E-01 -1.610255587461E-01 -4.372296891173E-01 5.613272438008E-01 -4.411921941544E-02 1.064688218249E+00 2.881985097306E-01 -1.217751847242E+00 3.177898768374E-01 7.222725256796E-02 5.259891766862E-01 -7.172764934195E-02 2.611159907436E-01 5.438313817142E-01 8.585396351833E-01 -2.651404847010E-01 1.357385584074E-01 8.291765833157E-01 -6.397598127271E-01 1.955343898185E+00 -1.544488516492E+00 -3.324044572409E+00 1.506616440043E+01
 -1.414023089304E+00 6.984154430484E-01 -2.413476199278E+00 6.949298300707E+00 -6.129086966258E+00 -1.087703539259E+01 -4.227992581490E-01 9.028275961399E-01 -4.780221101539E-01 2.098683228251E+00 -6.340241284113E-02 -3.760430045103E-01 6.843919783268E-01 -2.264284519342E+00 3.210730243219E+00 -1.686407690130E+00 2.204650753731E+00 -5.158915987339E-01 1.262926936092E+00 -2.390174138594E+00 -2.277899689153E+00 3.975254869869E-01 -2.231434575792E-01 7.731641702078E-01 -1.268780527912E+00 -2.435936131552E-01 7.054141329096E-01 -1.897518090872E-01 -1.568184212687E+00 -7.565571581238E-01 9.212501707402E-01 4.661054828869E-01 3.592463519202E-02 -4.458979497230E-01 -9.616705026879E-01 -1.276277025789E-01 -1.590729027998E+00 -1.022130825120E+00 -3.688526083454E-01 -8.975676221905E-01 3.673588362567E-01 1.017525073665E+00 -1.132901777561E+00 2.888933524467E-01 2.231070319642E-01 1.060043963616E+00 5.341893995571E-01 -1.587347212512E+00 -5.413043068674E+00 5.405555694368E+00 1.535404172592E+01
 5.615105495332E-01 -2.107838904164E+00 -2.407401601751E+00 -2.293343826653E+00 1.334982609450E+00 -9.369199416356E-01 9.894492945808E-01 -2.736998280344E-01 5.060516187925E-01 -3.951515509458E-01 -2.559034913710E+00 4.993044235741E+00 -8.213489904083E+00 -6.441011738406E+00 2.799432846314E+00 5.007795278018E-01 9.447210889932E-01 1.643235753164E+00 -3.912108796047E+00 1.746430469495E-01 -1.806132709417E+00 -8.832502937278E+00 5.406376477617E+00 2.811767962158E+00 2.052501910071E+00 -1.236339069162E+00 -1.064350271533E+00 -3.032656770663E-01 -1.165663689584E+00 1.178877550966E+00 -3.714371950483E-01 -4.418965122359E+00 1.443216509325E+00 3.236646106635E-01 1.428087235961E+00 7.775521922589E-01 -1.036434275767E+00 7.330132663093E-01 2.510195592079E+00 1.413310797736E+00 1.568291153721E+00 6.263138803336E-02 2.733185896274E-01 2.021387089735E-01 8.302813430504E-01 -3.681726517062E+00 -4.764725658070E-01 -6.099913080449E+00 -2.140802185177E+00 -7.235880989965E-01 -1.994743194608E+00 2.654040689077E+01
 -2.499723304493E+00 -1.245540070651E+01 -9.584933305776E+00 1.661486180794E+00 1.797616618572E+00 -2.052759176965E+00 -1.852413266472E+00 3.943662560078E-03 -4.697349176651E-01 -4.602686139011E+00 -7.695181074624E-01 3.316092362095E+00 -3.661679375119E+00 -3.669715713725E+00 5.160680710527E+00 1.319976014585E+00 -1.937600739896E+00 2.925923379698E+00 7.965856573680E-01 1.695153724199E+00 1.455989281503E+00 3.624145656075E+00 -6.800618024454E-01 -1.429256418051E+00 -1.233324826089E+00 3.028637684084E+00 -1.137668881735E+00 -1.596968259576E+00 6.013152904126E-02 -1.965898108724E+00 -4.642488226919E+00 -7.382053086752E+00 1.441464277655E+00 1.094970536777E+00 -6.680082394397E+00 3.833324072567E+00 3.497658918335E-01 -1.164756320683E+00 -7.910344310488E-01 -6.256637584452E-01 -1.114370529326E+00 -9.086176764208E-01 2.368118371837E+00 3.506061827610E-01 1.765244326919E+00 -1.579598722332E+00 1.317065377943E+00 1.372963509862E+00 1.944634833477E+00 -2.103711840069E+00 1.736277391878E+00 4.586168016087E+00 4.388364287580E+01
 -1.246603555217E+00 -1.090737217368E+01 -4.359651037607E+00 4.119719315204E-01 -6.025291119110E-01 -4.438893870390E-02 7.975665601260E-01 8.922131931479E-01 4.258823693600E-01 3.254046789782E+00 2.222724923633E+00 -1.041168122899E+01 3.758609107483E+00 4.528017954069E+00 -5.661598588781E+00 6.006224519219E-01 -3.664106453782E-01 7.799869079659E-01 -2.203560577137E+00 6.792526847480E-01 -1.241569374459E-01 2.787669533477E+00 -9.763944864130E-01 -5.048839138102E-02 -3.316763283256E-01 2.003451133663E-02 5.019046168041E-01 -5.760714660528E-01 -4.125832528814E-01 3.919376779261E-02 -2.902584693965E-01 -1.628751680974E+00 5.741796438373E-01 -1.439442623925E+00 5.400843099658E+00 -3.155758750285E+00 3.712697893513E+00 8.901413521844E-01 1.105066545175E-01 4.589552947614E-01 -7.903873441373E-01 -6.194662290306E-01 8.215112949678E-01 1.895144107157E+00 1.412591774603E+00 -6.614188523273E+00 -1.194107393335E+00 -3.979370555649E+00 -4.515340701742E-01 -1.414517186887E-01 -2.947073617204E+00 -5.650037441801E+00 9.563179339178E+00 3.545688163153E+01