#BIOSYM hessian 1
@Type: Hessian Update
@Units
 distance: 	A
 energy: 	Kcal/Mol
#header
@natom 6

#label
L1      L2      L3      L4      L5      L6

#element
Li Li Li Li Li Li

#matrix
18
 1.401452803244E+01
 -8.617526806088E+00 1.208359300188E+01
 9.062758274521E-01 -1.263646940100E+00 4.271094397208E+00
 2.140873599087E+00 2.488071403682E+00 -3.080072262318E-01 1.060136828330E+01
 -1.350728129960E+00 -2.651056053869E+00 3.641709881062E-01 7.489691030868E+00 1.337017391574E+01
 3.053667645137E-01 8.455808234527E-01 -1.131951750689E-01 1.956381617560E-01 -8.350898303531E-01 4.396479637380E+00
 -1.401452804194E+01 8.617526814555E+00 -9.062758270699E-01 -2.140873594205E+00 1.350728135326E+00 -3.053667647012E-01 1.401452805144E+01
 8.617526791735E+00 -1.208359299301E+01 1.263646937895E+00 -2.488071398216E+00 2.651056064237E+00 -8.455808239852E-01 -8.617526800203E+00 1.208359298414E+01
 -9.062758335153E-01 1.263646944807E+00 -4.271094396517E+00 3.080072260090E-01 -3.641709878672E-01 1.131951738543E-01 9.062758331331E-01 -1.263646942602E+00 4.271094395826E+00
 -2.140873589282E+00 -2.488071411957E+00 3.080072273112E-01 -1.060136829432E+01 -7.489691043959E+00 -1.956381605477E-01 2.140873584401E+00 2.488071406492E+00 -3.080072270884E-01 1.060136830534E+01
 1.350728123180E+00 2.651056063826E+00 -3.641709889536E-01 -7.489691019980E+00 -1.337017390770E+01 8.350898316595E-01 -1.350728128546E+00 -2.651056074194E+00 3.641709887145E-01 7.489691033071E+00 1.337017389967E+01
 -3.053667656105E-01 -8.455808224648E-01 1.131951727008E-01 -1.956381660175E-01 8.350898252491E-01 -4.396479635440E+00 3.053667657980E-01 8.455808229973E-01 -1.131951714862E-01 1.956381648093E-01 -8.350898265554E-01 4.396479633499E+00
 -8.738918315609E-01 1.216482151770E-01 -5.992737481205E+00 -1.867863996007E-02 2.070316450050E-01 -5.203588271731E+00 8.738918304027E-01 -1.216482123132E-01 5.992737481407E+00 1.867863785914E-02 -2.070316462594E-01 5.203588272971E+00 1.501667788740E+01
 1.122517102805E-01 -1.805295959695E+00 5.384708509661E+00 -1.020674377778E+00 6.460564621789E-01 -6.448102289923E+00 -1.122517090677E-01 1.805295957451E+00 -5.384708507046E+00 1.020674377727E+00 -6.460564647370E-01 6.448102284170E+00 9.605797148846E-02 1.601826867250E+01
 -1.884832511781E+00 2.931822732009E+00 1.165174373087E+00 -5.167664791885E+00 -7.680263254392E+00 -2.253755174231E-01 1.884832515540E+00 -2.931822742648E+00 -1.165174380001E+00 5.167664800770E+00 7.680263256407E+00 2.253755106327E-01 -1.761997610737E+00 3.711148469070E+00 3.534233098530E+01
 8.738918312529E-01 -1.216482153690E-01 5.992737479743E+00 1.867864610095E-02 -2.070316372795E-01 5.203588270710E+00 -8.738918300948E-01 1.216482125051E-01 -5.992737479946E+00 -1.867864400003E-02 2.070316385339E-01 -5.203588271950E+00 -1.501667788415E+01 -9.605797264975E-02 1.761997598093E+00 1.501667788089E+01
 -1.122516891480E-01 1.805295940865E+00 -5.384708506608E+00 1.020674361425E+00 -6.460564805820E-01 6.448102289149E+00 1.122516879352E-01 -1.805295938621E+00 5.384708503994E+00 -1.020674361373E+00 6.460564831401E-01 -6.448102283396E+00 -9.605797309789E-02 -1.601826866769E+01 -3.711148460447E+00 9.605797425918E-02 1.601826866289E+01
 1.884832518941E+00 -2.931822737704E+00 -1.165174371410E+00 5.167664796369E+00 7.680263259257E+00 2.253755166969E-01 -1.884832522700E+00 2.931822748344E+00 1.165174378324E+00 -5.167664805255E+00 -7.680263261272E+00 -2.253755099065E-01 1.761997609294E+00 -3.711148465932E+00 -3.534233097159E+01 -1.761997596650E+00 3.711148457308E+00 3.534233095789E+01

