#BIOSYM hessian 1
@Type: Hessian Update
@Units
 distance: 	A
 energy: 	Kcal/Mol
#header
@natom 9

#label
L1      L2      L3      L4      L5      L6      L7      L8      L9

#element
Li Li Li Li Li Li Li Li Li

#matrix
27
 4.062093177933E+01
 -3.704009430230E+01 5.001652794627E+01
 2.227565983866E+01 -2.314752508895E+01 2.181175433888E+01
 -5.038667435383E+00 5.875773920862E+00 -3.809238269008E+00 4.819631443794E+01
 -3.870237245699E+00 2.334546057713E+00 -3.196523964817E+00 3.459732992592E+01 3.939710648556E+01
 -1.448801097844E+00 1.859929984438E+00 -1.230508031980E+00 2.408054086733E+01 2.253377050898E+01 2.170583379300E+01
 4.661310091573E+00 -4.415702523523E+00 2.422228961213E+00 1.379607614617E+00 5.780297976142E+00 3.751426678113E+00 4.556750854869E+01
 -5.771707602054E+00 6.171554653879E+00 -3.628763759270E+00 -7.521704114641E+00 -8.335430252834E+00 -5.175148668400E+00 -4.008869780731E+01 5.173819159030E+01
 -4.034835546534E+00 4.264214864862E+00 -1.645148720068E+00 -4.225627145085E+00 -4.692627590854E+00 -1.530060012831E+00 -2.209927517124E+01 3.205437838963E+01 3.117069209897E+01
 2.856599293912E+00 -6.860532504835E+00 2.547075277975E+00 6.902565403921E+00 6.404233507085E+00 1.801310063423E+00 -7.325928052095E+00 8.116144625398E+00 4.681511102988E+00 5.128143757526E+01
 4.751176706628E+00 -5.903603916452E+00 2.154391046132E+00 7.400436001261E+00 6.608189675735E+00 3.119176795611E+00 -5.956635289581E+00 4.192399006832E+00 4.131613982157E+00 4.226215569628E+01 4.936092898064E+01
 -2.576169870698E+00 2.308106317920E+00 5.173794752247E-01 -2.831614610778E+00 -2.135931061256E+00 8.512193098103E-01 2.763827422438E+00 -4.680470835476E+00 -1.060485858470E+00 -2.394636064314E+01 -2.122887254038E+01 2.435559601663E+01
 -3.651323762737E+00 -1.839940027277E+00 -2.136172768745E+00 1.157457196884E-01 2.485804845259E-01 -1.323631788979E-01 6.212140880448E-01 -2.203772238370E-02 5.228334200464E-01 -3.899836304708E+00 1.229177577838E+00 4.036640297466E+00 1.883874168793E+01
 -3.493869053378E-01 -1.504903568782E+00 2.013766881181E+00 6.199659726040E+00 1.756760488604E+00 1.949419655821E+00 -3.967291319767E+00 2.450486350541E+00 1.804746549135E+00 -1.712739339711E+00 -2.802471706780E+00 1.372116267067E+00 1.509882634049E+00 4.105181045681E+01
 -2.456999291492E+00 -4.666355887770E+00 -7.065238404177E+00 6.104798558793E+00 2.026772887058E+00 5.204944140187E-01 -4.060236221889E+00 3.619102137984E+00 -2.440951703681E-01 3.874436617989E+00 -3.468896579874E+00 -9.672779943946E+00 1.247450070324E+00 2.457723317289E+01 4.081535869154E+01
 3.106400060304E-01 -2.266770599742E+00 8.118896060621E-01 1.934452283944E+00 2.919074478510E+00 2.071191258886E-01 -3.758624609209E+00 1.131694198818E+00 -1.619780028200E+00 7.023305216727E-01 -1.115387574359E+00 1.095157478251E+00 -9.307744550055E+00 -8.932696317785E+00 -2.607099823610E+00 3.332959834094E+01
 5.210640357039E-01 -2.836982559403E+00 1.458490059372E+00 -2.119483485289E-01 -5.480635593272E+00 -1.992279655221E+00 5.927369493267E-01 -8.109598396766E-01 2.029852097095E-01 -8.626516665068E-01 5.067106911031E-01 -1.367297977389E+00 -3.431724063584E+00 -6.037924069517E+00 2.733450126088E+00 -2.587641702568E+00 2.058961667922E+01
 4.843644167494E-01 6.072517512533E+00 -6.104373668944E+00 2.865646056826E-02 -4.184491597568E+00 -4.726287030895E+00 1.682855331978E+00 7.552467312661E-01 4.577040021867E-01 -1.374188533900E-03 -1.528799981671E-01 -1.874434593822E+00 -1.465651691021E+00 5.282222685690E-01 2.128322555860E+00 -1.097327080017E+01 -2.717078944246E-01 1.699448208022E+01
 7.246940240442E-01 -1.494938359698E+00 7.152375765020E-01 -2.825839625406E+00 -1.251662378878E+00 -2.947640651629E+00 -9.444714705492E-01 -4.239343904802E-01 1.399371647030E+00 -1.394108440121E+00 4.732334151478E-01 2.668052565591E-01 7.984456935207E-01 -5.055627202731E-01 1.998425352817E-01 -7.287356444903E+00 7.401070602730E+00 4.823093158559E-02 1.517887802008E+01
 -9.938809943649E-01 -1.082105695456E+00 -8.470490835032E-01 1.720703377504E+00 2.801429073595E+00 -1.908751659847E-01 1.612729921683E-01 2.458023083516E+00 6.572882821457E-01 -1.073782218449E+00 -2.821390212810E+00 2.596534245572E+00 7.507624589430E-01 2.384941388531E+00 -4.575520483520E-01 1.138617765535E+01 -1.597239237990E+01 2.281921755929E+00 1.485376584446E-01 4.504324484152E+01
 9.747947218301E-02 -2.675467978661E-01 2.735317350746E-01 -3.642980695352E+00 -7.326257297057E-01 -6.747764690057E+00 3.688867693290E-02 -1.021489107762E+00 -6.800924918420E+00 1.822278573987E+00 2.194390424308E+00 -3.346103609023E-01 -4.115801876548E-01 -2.132859777789E+00 -3.057978646880E-02 1.476762620327E+00 3.009164226576E-01 -1.217668476315E+00 4.699654911531E-01 -1.185048113961E+01 1.984299359664E+01
 2.875703405520E+00 -2.876077256075E+00 2.026862485384E+00 7.036114686431E+00 8.128270179762E+00 4.552621027492E+00 -6.970428625855E+00 6.450635140118E+00 3.966267048685E+00 -6.169172391793E+00 -7.023854386725E+00 2.845157864056E+00 -6.673749194443E+00 4.308767703064E+00 -5.455789772896E+00 3.327215125660E-01 -1.591190225047E-01 -1.633805020093E-01 -5.439278359815E+00 -1.090641962474E+01 -8.802048927412E-01 6.290052969333E+01
 3.203438563936E+00 -1.765772671427E+00 1.811594576700E+00 -2.009838337675E+00 1.544710567933E+00 5.544142428821E-01 -8.553217598723E-01 -5.524117137051E+00 -7.799539831531E+00 1.221930537360E+00 -3.996269775733E+00 1.308166786332E+00 4.280140901146E+00 -8.133577284650E+00 1.463160696408E+00 3.978616384826E-01 2.543861988926E+00 -1.947604753720E+00 -6.111721008777E+00 -1.319844961824E+01 1.301272177474E+00 -3.276522345439E+00 2.597015754228E+01
 4.320521532334E+00 -4.587303868379E+00 1.934315198282E+00 4.896710975524E+00 6.254649349478E+00 1.392181416497E+00 -7.767880205550E+00 -2.825942535073E-01 -1.005060041260E+01 -6.724362945150E+00 -2.520046720284E+00 -4.696044685037E+00 -1.057603840113E-01 -2.103066243099E+00 -1.401292730142E+00 1.382904297392E+00 5.655503397323E-01 -1.104749316429E-01 1.175297737561E+00 -1.277468707521E+00 1.348053667326E+00 3.808113736465E+01 1.320894132435E+00 4.615431284439E+01
 -4.335988740229E+01 5.091828165258E+01 -2.485354270805E+01 -5.770029308575E+01 -5.295588692736E+01 -2.986421283387E+01 -3.323018758522E+01 3.812960767253E+01 2.140953467231E+01 -4.295388760604E+01 -4.202030214649E+01 1.834655680585E+01 3.158506622763E+00 3.449366539721E+00 3.153597327499E+00 -1.625601706099E+01 -1.261786784068E+00 1.035957004085E+01 1.189036603151E+00 -1.193371304853E+00 1.031390941165E+00 -4.789244072594E+01 3.150031810839E+00 -3.525856837275E+01 2.370451702403E+02
 3.954962774348E+01 -4.542926024634E+01 2.338161933316E+01 -4.605041215074E+01 -4.062667650303E+01 -2.265840769813E+01 4.874934078241E+01 -5.234014745551E+01 -3.062305985525E+01 -4.749475863662E+01 -4.514449274254E+01 2.182764879761E+01 -2.724842243256E+00 -2.916512205476E+01 -2.582691450443E+01 -9.323117767088E-01 7.498705082515E+00 -3.081224024417E+00 1.764977181784E+00 -1.961330048077E+01 1.220842352829E+01 5.354319612545E+00 2.559456387962E+00 2.629385971144E+00 1.784059487098E+00 2.222608380125E+02
 -1.666121945336E+01 1.816396296321E+01 -8.491711922294E+00 -2.060124614199E+01 -1.587299280132E+01 -1.023510916756E+01 2.327016452800E+01 -2.164026063446E+01 -1.029708100840E+01 1.594548614046E+01 1.577112359050E+01 -8.085839359485E+00 -1.555395577507E+00 -2.800957877378E+01 -2.505018962631E+01 1.022631752406E+01 -1.630106630525E+00 -5.547269936652E+00 -1.327110524043E+00 9.087681861322E+00 -6.333030766872E+00 -4.497267062262E+01 1.987641973018E+00 -3.457045036708E+01 3.567567412699E+01 2.214252845203E+01 1.086106821547E+02

