#BIOSYM hessian 1
@Type: Hessian Update
@Units
 distance: 	A
 energy: 	Kcal/Mol
#header
@natom 19

#label
L1      L2      L3      L4      L5      L6      L7      L8      L9      L10     L11     L12     L13     L14     L15     L16     L17     L18     L19

#element
Li Li Li Li Li Li Li Li Li Li Li Li Li Li Li Li Li Li Li

#matrix
57
 3.095647397457E+01
 4.880953501410E+00 1.347436771929E+01
 7.639142809826E+00 -2.772975102961E+00 1.846123697673E+01
 2.534571088541E-01 -1.383441563220E+00 9.579151246857E-02 5.456230842424E+01
 1.527689512275E+00 7.333094006510E-01 5.386093856884E-01 -4.273458902564E+00 7.459353821230E+01
 7.509832764642E-01 1.371987834468E-01 -2.700783248930E-01 1.757610018564E+00 -1.161761840086E+01 5.430460650005E+01
 -3.328353186082E-01 -1.879141992740E-02 5.682426725916E-01 -1.723470330968E+01 4.720177232902E+00 2.080154566502E+00 2.940722046544E+01
 6.416612999362E-01 2.460116727097E-01 2.354046985834E-01 2.946362103168E+00 -4.178577417375E+00 -1.526132077409E-01 -1.311661446746E+01 2.218364554074E+01
 -6.079717119881E-01 -1.160476537579E+00 -2.265928452326E-01 1.906973036988E+00 1.538955286867E+00 -3.923837824888E-01 3.133027247809E+00 1.856562175516E+00 2.054136080337E+01
 -4.709780237094E+00 4.306266247783E+00 -3.596304598446E+00 -1.802432029503E+00 -2.691927186907E+00 1.086572469144E+00 -5.563008813378E-01 7.806101785737E-01 1.656318121006E-02 2.410164601691E+01
 3.097533535859E-01 -3.661472479531E+00 1.176917760270E+00 4.844966296954E-01 1.578674754216E+00 -2.052085969990E+00 -4.013996252015E-01 -1.537360273287E+00 8.763656927680E-01 -2.657166240435E+00 3.799350656160E+01
 -1.512697788571E+00 3.842553333477E+00 -2.088002987983E+00 4.610781963841E-01 -7.750310610099E-01 -3.292445996688E-01 -5.955443886952E-01 9.297510430716E-02 4.106479253729E-02 -9.159521974637E-02 -4.102374101606E+00 1.900250149948E+01
 -6.607499733055E-01 1.668442302812E+00 -4.124220648805E-01 -4.514987346252E+00 4.410420061675E+00 -7.417276053562E+00 4.536665454667E-01 -2.526999233514E+00 1.325449703503E-01 -4.627356395416E-01 -3.282650822092E-01 4.258268424390E-01 3.678491736494E+01
 7.852228797385E-01 -2.212380754631E-01 -1.268360942784E+00 -1.097823012724E+00 -3.476431288935E+00 5.041673798784E-02 -6.868782583289E-01 1.105583064198E+00 -3.288751472340E-01 -1.375286337151E+00 -1.059863590448E+00 -9.100119532174E-01 -4.808793517735E+00 2.386588428152E+01
 6.880940340259E-01 -4.071274750705E-01 1.177629546300E+00 -6.295199981019E+00 2.275701066264E+00 -7.717373834033E+00 3.375804782995E-01 7.728111319805E-01 -1.493471491922E+00 -3.966676906249E-01 1.086207990303E+00 -7.651542688084E-01 -2.364348879623E+00 3.247898451714E+00 3.081897143082E+01
 7.689161183804E-01 -3.822594812016E-01 -2.800093459356E-01 -3.476508994454E-01 -6.492050604204E-01 1.482737900614E+00 -4.742002185061E+00 1.471119949238E+00 -8.354600049019E+00 2.957062578283E-01 1.874251506223E+00 -1.735445174699E-01 -1.639337559617E+01 1.759362186535E+00 3.849965857024E+00 3.206128211783E+01
 8.600818734569E-01 1.010514538205E+00 -6.487058277167E-01 -1.274052171661E+00 -1.499260411027E+00 -1.494620076472E+00 8.642971345771E-01 -8.501292686687E-01 1.935842539375E+00 -1.131112834352E-01 -5.284525437925E-02 4.527111942498E-01 1.939102378134E+00 9.436733071341E-01 -5.076888501772E-01 2.278612297271E+00 2.396143788495E+01
 2.661806656491E+00 1.195278451908E+00 -9.002392792670E-01 4.285732504670E+00 1.027421753657E+00 -1.057704366751E+01 -6.287923193897E+00 -5.699091433941E-01 -8.893030102846E+00 -3.229493645013E-01 -7.198859104052E-01 4.892392078139E-01 4.950647593780E+00 -2.182287908158E+00 3.471194478842E-02 2.404502787328E+00 1.073736382539E+00 2.841341787124E+01
 -1.450111412329E+00 -1.306867845303E+00 -2.379583640640E+00 3.229292706123E+00 2.618860677997E+00 1.114468738017E-02 -9.476940538619E-01 -5.331825678565E-02 -1.409175029123E+00 -2.919804976673E+00 4.325667094546E+00 4.963471120123E-01 9.791162980250E-01 -6.917601792169E-01 -3.836809999949E-01 -3.427921308887E+00 -3.827871868959E+00 6.151289472919E-01 2.204001819934E+01
 -1.225140309050E+00 -1.271950810423E+00 -1.346199376751E+00 -1.622982302604E-01 3.392464410759E-01 1.752292752873E+00 2.473103828728E-01 -1.648481084211E-01 -4.224539216506E-01 4.833722729176E+00 -5.266929479535E+00 -5.445406007674E+00 -1.120103983980E+00 3.735723530392E-01 1.112406252943E+00 -4.524182168256E+00 -6.310193054770E+00 1.069248817483E-01 1.416622932290E+00 1.542486771884E+01
 -3.704230383382E-01 2.015952995775E-01 -7.362839587174E+00 -1.847331384904E+00 -1.895747591718E+00 2.066331440450E-01 6.735496443405E-03 -9.050543756348E-03 -1.246959824448E-01 8.428179385301E-01 -2.591076990555E+00 -2.128485763496E+00 -3.072203750948E-01 1.217927751439E+00 -8.924132203120E-01 -1.593062778141E+00 1.402414031712E+00 6.917137300444E-02 -1.219981222623E+01 2.677642165136E+00 3.024597224987E+01
 -2.724645533366E-01 -1.900101760245E-01 -3.591775340228E-01 -1.026960509982E+00 -2.247162775392E+00 9.600223459218E-01 -1.349110423155E-01 2.248592392890E+00 4.145849606916E-01 -3.586113089199E+00 -3.678466913800E+00 -2.263313848285E+00 -4.020861024479E+00 -1.606410345830E+00 2.511818334431E+00 -2.130875806806E+00 2.265323534872E+00 -8.842635808812E-01 -2.868551424840E+00 4.315598940348E-02 -1.428881528318E+00 2.296704449102E+01
 1.116932310230E+00 -9.204507047011E-01 -1.094301441127E-01 -6.884623393520E-01 -8.821354128485E-01 4.166248781345E-01 6.594717936518E-01 8.561643285177E-01 2.051743731721E-01 -3.800018250343E+00 -3.641235576657E+00 -2.915351343323E+00 -5.429351119250E+00 -5.088690619488E+00 3.213009072842E+00 3.380125851834E+00 -5.620363526739E+00 2.611169335771E-01 3.507557295933E-01 -1.559834178501E+00 7.651295719063E-01 4.098901756112E-01 2.472774059006E+01
 5.710930494401E-02 5.219256968500E-01 -8.121455978913E-01 6.191764778335E-01 -1.049850000114E+00 1.345490837935E+00 7.699577135066E-02 -2.080355490010E+00 -1.074115911318E+00 -2.126703034554E+00 -2.873095112102E-01 -1.018525746299E+00 1.073007780966E+00 2.639027857934E+00 -9.419495073942E-01 1.537493204942E+00 1.970922441832E+00 -2.136090263731E-01 1.165305240215E-01 -1.632139567000E+00 -8.040887272811E-01 1.230953957425E+00 -1.939677499157E+00 2.948158830381E+01
 -1.795861196623E+01 -8.388925277985E+00 -5.597219813394E+00 -2.638380875190E+00 -6.967029066744E+00 2.170188218268E+00 -1.965446465463E+00 3.538890719862E+00 1.846509668404E+00 2.032448414940E-01 1.170333823101E+00 -2.117188304144E+00 6.176255031080E-01 -1.768158710403E+00 2.221065470556E+00 -8.881257826046E-01 -4.501382883674E+00 -2.874173401075E+00 -8.789413795451E+00 5.161827987977E-01 1.255755667549E+01 -4.517833527550E+00 1.491710002465E+00 -6.918801216587E+00 5.858556774845E+01
 -3.827868894862E+00 -1.499286455146E+00 -1.336428592844E+00 -8.283317430543E+00 -1.493798544654E+01 8.714685496427E+00 6.002053772959E+00 -1.213837515090E+01 3.658397877028E+00 -4.186741868427E+00 -2.386627608648E+01 5.862085764429E+00 -6.118414643265E-01 6.437995542178E-01 -5.332953050227E-01 -2.395088449363E+00 -5.375628879304E+00 -6.586757578610E+00 -3.477317269178E+00 3.549634116957E-01 3.318198016146E-01 2.280286785332E+00 2.186887396689E-01 1.108902704437E+00 1.159112592676E+01 6.253705293877E+01
 -6.668062914989E+00 -2.140593629425E+00 -2.529790845243E+00 4.264479190322E+00 6.260590777819E+00 -5.811865689396E-01 -1.352659596768E+00 1.566936161393E+00 1.553304591785E-01 2.253890565423E+00 5.750442039643E+00 -2.738615455878E+00 7.148278168535E-01 6.189433755317E-01 6.243012521219E-01 -9.400783948939E-01 -7.303355042290E+00 -6.713325654628E+00 1.269755195561E+01 2.832696922358E+00 -1.866757872597E+01 -6.178368613506E+00 2.588401496747E+00 -8.825590191240E+00 -8.486998110383E+00 -6.494322776705E+00 5.504177426642E+01
 -2.126671464676E+00 1.203957849695E+00 -6.762481768346E-01 1.298569071791E+00 2.290830336023E+00 6.823805552345E-01 6.480005895947E-01 4.880349435863E-01 -1.540200674069E+00 -1.115795358925E+01 1.876826314084E+00 3.511938864590E-01 1.955458992862E+00 -3.162219860555E-01 1.468230775592E-01 1.709091143919E-01 -1.236503249797E+00 -1.355733203147E+00 1.974744486399E+00 5.931436339900E-02 -1.621194338748E+00 -1.904105525839E+00 2.794374456219E+00 1.159381228992E-01 1.485977960517E+00 -8.683969424209E-01 3.150503530588E+00 2.691811104177E+01
 -1.372911633876E+00 1.680800931489E-01 2.974197777561E-02 4.216470306456E+00 3.277038309575E+00 -7.990847457027E-01 -1.116353436639E+00 -3.780182881486E-01 4.728172095741E-01 2.778717086348E-01 2.614688683059E+00 -1.594985564056E-01 -3.869883151451E-01 -1.186631070786E+00 -1.079244599823E+00 9.181310484048E-01 -2.244341050957E+00 -1.620971914465E-01 1.459511708671E+00 8.172084255238E-01 -2.404450020624E+00 1.725981469079E+00 -4.886468420002E+00 -2.266503798288E+00 -2.199876929326E+00 -8.902975506881E-01 2.328980478264E+00 1.992304728725E+00 3.684999189537E+01
 -1.252661130698E+00 -1.594467594539E+00 1.156892721820E+00 2.852256007009E-01 2.854242936810E+00 -1.512652042370E+00 4.837817572313E-01 -1.308135382727E+00 1.649692695930E-01 4.307670248160E+00 7.600379784784E-01 -1.924017647908E+00 6.027759079301E-01 -2.737358038968E+00 -7.372937128590E-01 -2.391000673567E-01 -2.917098381211E+00 5.112070061742E-01 3.319578764885E+00 2.629876240546E+00 -2.691832590396E+00 1.016234942320E+00 -6.587916156488E+00 -3.255098053947E+00 2.594606453286E+00 -6.698074966087E-01 1.259185709121E+00 -2.063807480895E+00 -1.950250465301E+00 2.655101756965E+01
 2.706976196627E+00 4.314896695098E-01 2.838032378869E-01 -1.300076295859E+00 -9.620053308458E-01 2.338460139150E+00 -1.694945523695E+00 -7.555997417352E-01 5.622170987997E-01 -1.386037212731E+00 -1.887577688242E+00 -8.954584397236E-01 -8.664394250538E+00 5.458068673232E+00 1.264074166975E+00 -1.210986074841E-01 1.444296344292E+00 -1.561448460764E+00 -3.068578929162E+00 1.292679029403E+00 2.596488725900E+00 -1.784876411085E+00 7.547236991275E-01 2.940857921818E-01 -7.737100071125E-01 1.303689286289E+00 -4.145041918922E+00 -6.583911682311E+00 -4.044476657073E+00 -1.834034263942E+00 4.054729884336E+01
 -3.491716718083E-02 7.114182068049E-01 3.505641654665E-01 6.367485715890E-01 2.193041471390E+00 8.553547652023E-01 -6.757771851201E-02 1.574128040772E-01 1.776257087065E-02 -1.052654402626E+00 -9.051250672226E-01 6.858324088013E-01 7.530156023062E+00 -6.532911766162E+00 -2.007559658399E+00 -6.969956603409E-01 -1.978126338556E-01 6.931561695243E-01 -1.521010918338E+00 -9.418454052069E-02 1.476786590368E+00 -2.426567157331E-01 -2.096556805209E+00 7.677686300685E-02 1.921470818552E+00 -2.108953224974E+00 -2.712336656398E+00 -5.823554380265E+00 -4.009951923169E+00 -1.661882939204E+00 -1.568525891717E+00 1.888672148455E+01
 5.541218358318E-01 4.567033873690E-01 2.481604113120E-01 1.137509753335E+00 1.160678070921E+00 1.646570216844E+00 8.207017879612E-01 -1.265668518985E+00 -2.454633120171E-01 -8.234275164024E-01 4.994313150731E-01 -2.363957754214E-01 3.259258714784E+00 -1.938134387423E+00 -6.932987887363E-01 -7.351308906817E-02 -5.451286612801E-01 -1.133667880457E-01 1.817974226747E+00 -8.003772132596E-01 8.165831760786E-02 7.098445906983E-01 -9.605368286967E-02 -2.695047589560E+00 7.704619604189E-01 2.660631874672E-01 -4.887487861094E-01 -4.405587262311E-01 -6.833601468604E-01 -7.109498800940E-01 9.695828614087E+00 6.644012664170E-01 2.160754618160E+01
 1.233871557175E-01 9.431606705400E-02 1.289057617796E+00 -1.462366899979E+01 -2.279968124047E-01 3.109438542605E+00 -2.387580510264E-01 5.064432334482E-01 5.452585549413E-01 -1.651409486560E-01 9.370451489108E-01 -7.151189280356E-01 -1.777243575859E+00 -2.329502810735E-01 3.006490727665E+00 -1.150113312315E+00 -1.938077988475E+00 -1.613556624471E+00 -1.015739167061E+00 1.231782306540E+00 -7.316913895428E-01 1.646207499010E+00 -1.455275419726E+00 -6.921725821111E-01 2.328277322686E+00 1.459271739689E-01 -1.514746539129E+00 1.281205806012E-01 1.656594998338E+00 2.468416799468E+00 2.576259468488E+00 1.986891347010E+00 -2.349940123851E-01 3.096158902984E+01
 7.882517239027E-01 1.733845783216E-01 5.183892085423E-01 -1.478776007810E+00 -1.970260745187E+00 7.247326173974E-01 2.401271938088E-01 -5.802880720374E-01 -8.284704703747E-01 1.162036808915E+00 -7.896125949567E-01 -3.346236908234E-01 -4.485394532879E-01 3.605383380178E-01 -5.517554971199E-01 -5.798334565066E-01 4.172865868463E-01 5.554415962471E-01 1.391572684392E+00 4.874820038525E-01 -1.447350673410E+00 -3.476553898607E-01 -4.570329893709E-01 1.200654843590E+00 -1.455601753683E+00 -5.999047165857E-01 1.091644705769E+00 -1.708437191524E+00 1.439739419099E-01 1.183381824219E+00 -5.043079248082E-01 -2.770088984871E+00 2.042339187945E+00 1.125556220944E+01 1.904107342069E+01
 -6.028796693954E-01 -8.977697070921E-01 -1.013260485985E+00 1.992652111443E+00 -6.719480413052E-01 -4.726876136893E-01 2.253150738894E-01 -6.817608363214E-03 1.068412051181E+00 -1.003939175857E+00 -3.001443590377E-03 -9.412215563718E-01 2.740946344130E+00 8.862916920772E-01 -1.045633555855E+01 1.596264745529E+00 9.409677429032E-01 -1.540817798004E+00 -2.714424158592E-01 1.194554343872E-01 8.689485750087E-01 7.885152959732E-01 7.779358927614E-01 -2.458335004290E-01 3.317679576757E-01 9.404494997449E-01 -1.378617856304E+00 1.432877178057E+00 2.029268256446E-01 3.277546071529E-01 1.393032188693E+00 2.507702963180E+00 -2.434967647343E+00 -4.211422193408E-01 -2.165186858392E+00 2.369820457981E+01
 -4.411937157779E+00 -3.862372409412E+00 2.569251643793E+00 -2.135939003172E+00 -2.834185725016E+00 -5.732926562224E+00 -1.218913515430E+00 4.256002465589E+00 3.999979098934E+00 -3.736484032337E-01 1.121820261917E-02 4.307606665337E-01 -2.086834094377E+00 -7.573279494000E-01 3.854567778417E-01 1.065977985639E+00 -5.245669491191E-01 -1.662225260179E+00 -7.148286476057E-01 7.743532565464E-01 1.116637153039E+00 8.824739376207E-01 7.614869628495E-01 -1.985488841588E+00 -4.188136896848E-01 -6.461656704056E-01 -2.257555244559E+00 9.094753682344E-01 -8.791251305639E-01 8.078846952461E-01 5.317770408335E-01 -2.668695206672E-01 -1.726184280165E+00 4.088552986261E-01 -2.614541710704E+00 1.491516462092E+00 2.928251282550E+01
 -2.192617783932E+00 -3.594540035506E+00 2.961051675159E+00 -3.435574683806E+00 -2.589882603999E+00 -1.086637032667E+00 2.323608796157E-01 -4.141992039817E+00 -6.038069710293E+00 1.938369642131E+00 -7.619589793097E-01 8.921778641669E-01 4.414178301872E-01 -1.067858820376E+00 -5.369187529037E-01 -1.806867035405E+00 6.144046161069E-01 -6.305446179321E-01 1.804946858159E+00 -5.343993327781E-01 -5.441255119770E-01 9.510916978272E-01 2.347814132026E-01 1.691935748568E+00 -3.645198733763E+00 -3.040412109239E+00 4.364903940207E+00 -5.195700057064E-01 1.159550971406E-02 3.254132366387E-01 -2.596429325571E+00 -2.003800280234E+00 4.363146307913E-01 -1.301192154191E+00 3.649266651481E+00 -2.598891687817E+00 -1.520374161649E-01 2.890352201221E+01
 9.355135968466E-01 1.654124856071E+00 -2.094522193474E+00 -4.715343884763E+00 -1.317943175486E+00 -5.538916470459E+00 3.698851178391E+00 -3.151373128646E+00 -7.141247783436E+00 -1.323364286073E+00 -5.026952297928E-02 -2.341932625613E-01 -1.717350495756E-01 8.365382343526E-01 -5.148976746668E-01 4.371286085408E-01 5.985289770896E-01 -5.103689833498E-01 -5.391979232694E-02 7.094783466954E-01 -4.438988704427E-01 3.662096979774E-02 -8.626227708364E-01 -1.145483667270E+00 -7.536653053587E-02 1.870172525849E+00 -1.143418392643E+01 2.252902180474E+00 1.848118025684E+00 1.762697390077E-02 4.077950804578E-01 -7.043571484420E-01 9.418361848190E-01 1.351107893526E+00 -1.766498376890E+00 6.592507039184E-01 -6.374639624100E-02 -1.595688466898E+00 2.890700539791E+01
 -3.107059877056E+00 2.051141820326E+00 1.047088202984E+00 -5.933612294895E-01 1.308469193842E+00 -4.929518073719E-01 1.184776213520E+00 1.985248417517E-01 1.022819056163E+00 -8.398341377668E-01 -7.801975434533E-01 3.210686927236E+00 8.328453760132E-01 -1.943401360198E+00 3.821998145549E-01 -1.202649139575E+00 7.933241657170E-01 2.432790547217E-01 1.567716092960E-01 7.144373568871E-01 2.704926221106E-01 1.069763979492E+00 -8.422831384628E-01 -9.384962175380E-02 -1.377503353675E+00 8.932323332459E-01 -3.232075646956E-01 -2.960616176967E+00 3.075139036109E+00 -2.754341136298E+00 -2.112173042391E+00 1.369150424704E-01 -2.039388735137E-02 1.259695743363E+00 -1.268000372140E-01 -8.189474503764E-01 -6.987512325607E-01 1.841589967438E+00 7.655116191745E-01 2.165379308735E+01
 -9.323882510154E-01 -1.415181288473E+00 2.749448543872E-01 2.077832244388E+00 2.934524311264E+00 9.134257260244E-01 -9.378455429812E-01 -3.474180612808E-01 4.549761978811E-02 4.242797333280E-01 -5.530467817270E-01 2.992119370198E+00 -2.248856427427E+00 -1.462482522694E+00 -9.944892823205E-01 -2.311325367621E-02 -1.118506029563E+00 1.290512668654E+00 -4.440931640345E-01 5.984897207462E-01 -1.495401781694E+00 1.122762070854E+00 1.453831034582E-01 4.874596039566E-01 2.726673186415E+00 -6.185557018478E+00 -7.095350792780E+00 1.560937476883E+00 -7.779476071834E-01 5.143881097930E+00 1.981938069606E+00 1.117210461771E+00 -1.347366512551E+00 2.624538666486E+00 -3.220494055243E-01 1.220789389042E+00 3.225560247829E+00 -5.846533447893E+00 1.830199227821E+00 1.770209865512E+00 2.798703880801E+01
 -1.481872495247E+00 -5.551000546224E-01 -2.250112132120E+00 6.138557212869E-01 -5.712410901177E-01 3.977506429996E-01 -1.072265681512E+00 1.174604668508E+00 -2.512858348655E-01 2.882364335838E+00 4.733337694765E-01 -6.759825085099E+00 6.334382373298E-01 -4.588011954317E-01 -4.494590825232E-01 -9.007281260682E-01 -3.177558501313E-01 1.138953930414E-01 3.026890049046E-01 -6.221827632830E-01 -5.790846651246E-01 6.132588702343E-01 3.631085895821E-01 8.521544851065E-01 2.665544441655E+00 -4.939308868332E+00 -5.318739776534E+00 -2.601333364371E+00 2.718613497978E-01 -5.356182071017E+00 -2.555066765694E-01 -6.625464590736E-01 9.799103882738E-01 1.917143526148E-01 1.238876480120E+00 -7.034842651602E-01 -3.242910081302E-01 1.513839284966E+00 -1.548266070563E+00 1.404594483404E+00 2.375013806348E+00 3.037624435428E+01
 -1.377796702828E+00 -7.228980711247E-01 -5.338969949592E-01 -4.182250315879E-01 -1.426507339635E+00 -1.502817003471E+00 5.929903958793E-01 9.209756232803E-01 4.441376977582E-01 -2.156860358922E+00 8.837918754625E-01 -3.564479916393E-01 1.570548959597E-01 -8.199853877516E-02 1.603316036444E+00 -7.385562729535E-01 -4.501199585737E-01 -9.661671870728E-01 -3.960649859600E-01 9.235971503548E-01 5.991808671598E-01 2.953769134710E-01 -1.883507680861E+00 -9.162788054625E-01 1.324485106909E-02 1.030542884177E+00 1.868363695425E+00 -1.304865178536E+00 -6.297714087482E-01 4.051979739213E+00 -8.448984066805E-01 2.580923629474E-01 -2.570348332190E+00 1.259254157621E+00 -6.433188700726E-01 -5.417503478684E-01 1.355112226285E+00 -3.246667807053E+00 1.054194599483E+00 -3.981769709201E+00 -8.820097047199E-02 1.782790522719E+00 2.789534218477E+01
 2.978073900604E-01 2.023572527892E-01 9.228288778063E-01 1.060246813258E+00 2.997169195228E+00 -1.878895499173E+00 -1.363975487363E+00 -1.479486353135E+00 2.719392279989E-01 1.934160680035E+00 3.475035308331E-01 1.591496321530E+00 3.318598654052E+00 -8.675633974676E-01 -1.499802213004E+00 -1.263211605233E-01 -2.834015475639E-01 2.360325243752E+00 1.640927063656E+00 -7.929184547891E-01 -8.358676655027E-01 -2.161198337205E+00 -6.465906325340E-02 1.210522622257E+00 -9.431831176302E-01 -1.437382226673E+00 8.805415393886E-01 -3.216901456664E+00 -1.186579835788E+00 4.684242074222E+00 -3.141543006208E+00 -3.066790621528E+00 1.894287613492E+00 -2.510251099889E+00 2.378018357188E-01 -1.600649056945E+00 2.025462006420E-01 3.317499088066E+00 -1.628165785663E+00 6.512949441565E-01 -1.211426673246E+00 -2.155863774254E-01 -1.088456813338E+01 1.959381350201E+01
 -6.529530833895E-01 5.512882703842E-01 -3.524429307272E-01 3.513558984478E-01 -3.606191560178E-01 2.548476295017E-01 2.085050936121E-01 1.485752239890E+00 -5.448794484235E-01 1.593655416362E+00 -1.157167448799E+00 -6.565956278904E-01 -1.735715373402E+00 -1.542357261221E-01 -1.590079687216E-01 1.303715849104E+00 3.408966655831E-01 -4.915351791625E-01 -8.245696691548E-01 -1.128709329486E-01 -1.273707226666E+00 1.138726410065E+00 6.885699657625E-01 -8.270345261768E-01 8.242627937001E-01 -3.426936464712E-01 -1.906654677678E+00 4.703485171584E+00 3.637952536981E+00 -4.494252654870E+00 8.123501170533E-01 -2.883604204582E-01 -9.286063236315E+00 8.828089602459E-01 -2.144299669882E+00 2.130109973012E+00 2.227873202559E+00 -1.194512598760E+00 3.063232355587E+00 8.582248586378E-01 2.624428308796E+00 -1.177828118310E+00 -1.316643922199E+01 6.415593363648E-01 3.155584049884E+01
 4.323491506246E-01 2.665835715659E+00 -1.486572828380E+00 -1.108552798516E+01 2.027575786529E+00 3.297878627695E-01 -1.908212288705E+00 6.603037397147E-01 -3.378741932858E+00 3.901975329765E+00 -1.165994080245E+00 1.353752694190E+00 -6.176868549091E+00 3.787842734084E+00 -1.125938386081E+00 1.860942578757E+00 3.998759109562E+00 -5.702830727034E-01 -2.994151627258E+00 -2.014048424768E+00 1.406069034995E+00 -9.093447093153E-01 1.871789576821E+00 4.854333824003E+00 -2.285392670617E+01 3.593743916075E+00 6.316257053914E+00 -4.154498965883E+00 -3.633591250496E+00 -1.006732879240E+01 -1.671318246325E+01 3.872177961999E-01 -1.403440017841E+01 -1.069913878550E+01 -3.515725315034E+00 1.526700978187E-01 -3.688236242049E+00 7.257145444013E+00 -2.531627327747E+00 -5.704895834001E+00 -8.771311015065E+00 -6.471678051814E+00 -1.379774586970E+01 5.973062150796E+00 9.124192920787E+00 8.638417891551E+01
 -8.318068115495E-01 -1.027594102512E+00 -7.888248081086E-01 7.181150630166E+00 -1.866506433793E+01 2.645544184813E+00 1.703133460853E+00 -1.043593362849E+00 -6.081329042977E-01 5.151144990664E-01 -2.027763483658E-01 -2.569652333488E-01 -5.572890674186E-03 -5.243823065591E+00 -6.265067838337E+00 -2.206375432809E+00 1.062984316577E+00 2.441832935873E+00 -1.202533063153E+00 -1.346555137750E+00 2.436441859195E+00 -3.304231131023E-01 2.275883343531E+00 1.094823093195E+00 3.876478080571E+00 5.343216235942E+00 -2.391727946951E+00 1.489674304446E+00 -2.634714125506E+01 1.100976365322E+00 1.351971855132E+00 -9.753734492737E-02 6.458989363597E-01 -9.086880966612E+00 -7.950829402066E+00 3.585666402678E+00 -4.466059581372E-01 -3.878751227087E-01 -2.054828790509E+00 -6.151253797717E+00 -6.394439244865E+00 -4.403821895251E+00 7.859330123197E+00 -5.957048661483E+00 -9.360513277217E+00 -6.672350780926E+00 6.415070802351E+01
 2.404969727437E+00 -1.340802960255E-01 -2.011422684599E+00 -3.647818270095E+00 -2.872845774678E+00 -1.556546132119E-01 -1.430071339369E+00 2.487381967570E+00 -2.143133837705E+00 -4.393635696836E+00 -1.139448535951E+00 3.294152901269E-01 -7.620693423653E-01 -1.843927985157E+00 -4.746726151649E+00 -6.829468281315E-01 2.118707528816E+00 4.098846451793E+00 -2.366230865413E+00 -1.304049473086E+00 4.112367052267E+00 2.651049007311E+00 3.446075842608E+00 -1.190566395433E+01 6.502240897789E-01 1.531835675557E+00 1.591129452707E+00 6.814819471990E-01 -5.831125792959E-01 -1.140020377386E+01 -1.129371118713E+01 9.463604660950E-01 -5.637046559227E+00 -2.018321857018E+00 2.269563699377E+00 -4.250763141369E+00 -1.040932105686E+00 -3.673671717057E-01 -8.681490184718E-01 -7.527986193195E+00 -1.033115959018E+01 -6.631510083498E+00 1.118782738249E+01 -1.011269628088E+01 -1.500390161218E+01 1.510876236245E+01 1.184932433904E+01 6.752989966414E+01
 1.976785087022E-01 -1.125464362580E+00 -2.133912267976E-01 5.983733184394E-01 -2.891471365266E+00 -6.094068400827E-01 -1.890970803429E-01 -4.782418754704E-01 2.515529034570E-01 5.087866825980E-02 -7.881496300074E-01 -3.726308574865E-01 -1.069711669246E+00 2.794308813258E+00 -9.967117526867E-01 -1.655617293554E+00 -1.767012094591E+00 1.381779945026E+00 -1.882447122013E-01 -4.931518814445E-03 1.288925783518E-01 -4.014962261564E-02 3.201512192543E-01 4.853340610559E-02 -1.246673866583E+00 -7.404789167288E-01 3.863751207950E-01 -1.114629113195E+00 5.197132396636E-02 6.150495669792E-01 3.252212225797E-01 -7.620985540236E-01 5.880706038645E-02 -4.484237975065E-01 1.056338611692E+00 -3.479173344030E-01 -4.678098794287E-01 5.904769385968E-01 -1.710925863896E+00 -1.624060139768E+00 6.553214298181E-01 3.530402002181E-01 2.448476537389E-01 5.557002447661E-01 -6.578463660966E-01 2.513801144894E+00 7.026555588358E-01 1.180728457969E+00 5.023569780858E+00
 -5.794258537217E-01 -1.345991365756E+00 6.203947203770E-01 -1.500245960779E+00 -2.050145228779E+01 -9.744028103382E+00 1.372699553744E+00 -2.435372360792E-01 -2.217419248036E-01 1.350453092364E+00 -2.493135555407E-01 -1.158498960353E+00 -3.413220599599E-01 -2.038868925913E+00 1.278777130606E+00 -4.307781960567E-01 -3.839293265318E+00 2.590432815668E+00 -1.479264362295E+00 -4.831218687652E-01 1.118217522335E+00 2.459949529441E-01 -9.050791058056E-01 1.116817773257E+00 1.309235969908E+00 -7.555360682824E-01 -1.547626434588E-01 -2.029433315227E+00 -2.122231957553E+00 1.296302807210E-01 -5.413900427116E-01 -4.471991696545E-01 2.259418838773E-01 -4.561727072036E-01 -8.085376904911E-01 -3.205883044945E-01 7.749218978613E-01 9.330499692487E-01 -1.265429145539E+00 -3.140142614334E-01 -5.353775047508E-01 1.511983656531E+00 6.889222060355E-01 -1.624213220606E+00 -1.031656597402E+00 2.642053310422E-01 2.401705313466E+00 1.676872458032E+00 2.930928240131E+00 3.070783021995E+01
 -5.212098916229E-01 1.138262907822E+00 -9.831363457089E-01 -1.269096386916E+00 -8.558285768520E+00 -3.272985081764E+00 1.130735138336E-01 -1.155811604325E+00 -7.994702537189E-01 1.365090671428E+00 5.863578890726E-01 -5.404810679007E-01 -2.024467352991E+00 2.094280226480E+00 -1.585258970832E+00 2.263426891705E+00 3.118865256773E+00 -2.423662178350E+00 -3.092793733993E-01 6.776772173189E-01 1.381174519326E+00 -1.519628205269E-01 4.027567413644E-01 1.078542974252E+00 -6.252722726792E-01 -1.147972745823E+00 3.904265468503E-02 -1.914323384081E+00 1.368675162372E+00 3.474803003875E-01 1.161984716975E+00 6.146200830827E-01 -9.190755935237E-01 -1.130522818355E+00 1.490354518065E+00 -6.502881581070E-01 -1.875010079563E+00 5.779682616649E-01 -1.600648604429E+00 -3.309055239972E-01 1.004586896545E+00 2.048201412245E-01 2.754256526330E-01 -1.345455191530E+00 -2.546121840948E-01 3.103356598780E+00 -1.016648804685E+00 1.209950016488E+00 2.329633024516E+00 4.947120851493E+00 1.921317724176E+01
 5.464314321260E-01 1.571648197133E-01 9.023936495608E-01 -5.508586079429E-01 2.445841001237E+00 -3.806147372706E+00 -2.774089770979E-01 7.767210620287E-01 -9.378309236962E-01 -5.264370706493E-01 6.860370659195E-02 7.312210643056E-01 -7.467064055221E-02 6.430886193422E-01 -3.622922568984E-01 -4.956110348903E-01 -2.306110286867E-01 1.739745241966E-01 5.213848935746E-01 -1.272990362013E+00 6.168328674807E-01 -9.613043657382E-01 5.320824289115E-01 -4.661960413437E-01 4.378289498328E-01 -8.658596488864E-01 1.120438586920E-01 -1.119106648852E+00 -6.820628400714E-01 -1.155933072998E+00 7.738426116894E-01 9.578567350354E-01 -6.308336924064E-01 -7.184055179134E-01 -1.361577234843E+00 1.025277161853E+00 -2.615678054706E+00 -3.199042187630E+00 1.533695080783E+00 -1.299963095509E-02 -1.384978744072E+00 2.361376079805E-01 1.040508916782E+00 -1.235522533530E-02 -6.166692392348E-01 -3.183491629037E-01 1.854023492895E+00 7.319557891127E-01 -1.578867757893E+00 -7.487573212685E-01 -2.011928063808E+00 7.308538583269E+00
 6.338755662064E-01 -1.214388235738E+00 -4.922570307062E-01 2.216241702847E+00 -1.369040056384E+01 1.461881374127E+01 -7.485304998298E-02 -2.232404689999E+00 1.059064345458E-01 7.633589212325E-01 -1.710077197477E+00 4.873337031236E-01 1.891856757177E+00 -1.945114786581E-01 -1.126093784559E+00 -8.681599102040E-01 1.190374236132E+00 2.184639013636E-01 -9.173312561947E-01 -1.904942530381E-01 1.743718765990E-01 -5.668438416505E-01 4.796985389569E-02 -7.489220704431E-01 -2.217757914140E-01 2.186219248066E+00 4.150189241104E-01 -1.403019560527E+00 -2.697364794864E+00 -5.497737065445E-01 -1.495182820721E-01 8.044918594658E-01 4.407889822365E-02 -2.216932630817E+00 -3.788754835545E-01 -1.510705803006E+00 -2.798648205090E+00 -4.787501893819E+00 -6.170629719513E-01 -2.563439755518E-02 -4.314918827052E-01 1.950473185017E+00 -1.038961812480E+00 1.468964208854E+00 -1.301089255571E+00 6.916574545945E-01 2.488744720613E+00 1.081166195898E+00 5.164016752230E-01 -3.305732134882E-01 -1.592794905096E+00 -4.657738348980E-01 2.878556600384E+01
 -6.523046936013E-01 -6.087254829145E-01 4.784796882592E-01 -4.251904424836E+00 1.503039254872E+01 -2.112587525688E+01 -8.239219190458E-01 1.634247590346E+00 -2.082550243910E-01 -8.037428874151E-01 7.990171710026E-01 -5.833697589007E-01 -8.896766660594E-02 1.176976075849E+00 2.485348958044E-01 -8.454620573406E-01 -4.618465149370E-01 -3.214051542368E-01 2.678679559620E-01 7.848265891410E-03 -6.133285171403E-01 -7.762311017665E-01 4.569743296825E-03 7.403031143747E-01 1.434082621966E+00 -4.293964459942E-01 -8.390106174590E-01 8.687392458007E-01 -1.781750553586E+00 4.988171128481E-01 -2.597095128759E-01 -7.779517326232E-01 -8.868474176904E-01 1.253972896695E+00 8.311376263586E-02 1.559189754582E-01 1.811722604100E+00 -7.536078976833E-02 1.665958869761E+00 2.492355088662E-01 -1.059508199417E+00 -1.163797396057E-01 6.725496903061E-01 -3.666863729832E-01 -6.414010855976E-01 -4.292906041148E-01 1.640572024084E+00 -9.670242512104E-01 -1.684603998423E+00 -7.389447586792E-02 -8.837943623554E+00 4.795172225722E+00 -1.378816493690E+01 3.209550683829E+01