#BIOSYM hessian 1
@Type: Hessian Update
@Units
 distance: 	A
 energy: 	Kcal/Mol
#header
@natom 4

#label
L1      L2      L3      L4

#element
Li Li Li Li

#matrix
12
 1.128678504315E+03
 -3.773736944869E+02 1.811869218177E+03
 3.153933244063E+02 3.588072683749E+02 1.929958114442E+03
 2.478444824614E+02 2.873793708852E+01 7.588917951101E+01 1.068144862072E+03
 -9.389970175534E+01 5.308561389262E+01 -7.707148751212E+01 4.314830551293E+02 2.054813387086E+03
 4.684760201663E+01 -1.688129111088E+02 1.735207832784E+02 -3.970522507841E+02 1.884161798870E+02 2.007637141679E+03
 1.789767947595E+02 5.542062860740E+02 -4.960193083242E+02 4.078801177640E+02 -2.504849777972E+02 4.086848971017E+02 1.289726791511E+03
 8.459494027508E+00 1.461199409106E+02 -1.292069163676E+02 -1.055287484574E+01 -1.530963079078E+01 7.680892888226E+01 -2.216669119919E+02 2.147176188829E+03
 6.588712161656E+01 -1.935820709715E+01 2.745440358172E+01 -6.804973762663E+01 2.320455554086E+01 -4.213277248340E+01 7.071345557627E+01 3.794268077631E+01 2.213128704091E+03
 6.853463391852E+02 -2.055705286755E+02 1.047368044068E+02 5.169766584236E+02 -8.709837557698E+01 -5.848024833400E+01 3.642624166862E+02 2.237602928102E+02 -6.855083956631E+01 6.742607064259E+02
 4.628139022152E+02 2.297713477402E+02 -1.525288644951E+02 -4.496681173722E+02 1.482567505324E+02 -9.641219766036E+01 -8.205439628449E+01 -3.714037822804E+01 -4.178902922028E+01 6.890861144158E+01 1.899958400676E+03
 -4.281280480394E+02 -1.706361501689E+02 1.099128194185E+02 3.892128088999E+02 -1.345492479154E+02 1.018209682468E+02 1.662095564619E+01 1.445530670853E+01 4.239578553228E+01 2.229428349328E+01 2.907300913758E+02 1.986716547523E+03

