#BIOSYM hessian 1
#COMMENT: Materials Studio generated
@Type: Hessian
@Units
 distance: 	A
 energy: 	Kcal/Mol
#header
@natom 19

#label
Li      Li      Li      Li      Li      Li      Li      Li      Li      Li      Li      Li      Li      Li      Li      Li      Li      Li      Li      

#element
Li Li Li Li Li Li Li Li Li Li Li Li Li Li Li Li Li Li Li 

#matrix
57        
 2.184204953744e+003
 -2.955372627626e+001 1.860460407307e+003
 3.927444978517e+000 5.654318819627e+001 2.223358830861e+003
 -3.408252016142e+001 4.609365311462e+001 1.257933048310e+001 2.168739478910e+003
 -3.593167591776e+001 2.101551729480e+002 1.116608531115e+001 -1.535963619895e+002 1.874956498082e+003
 1.078350436859e+001 1.751944584748e+001 -2.257908236683e+001 4.605475651338e+001 9.316076225691e+001 2.195820560551e+003
 -5.023547445192e+000 3.949112706267e+001 4.718492630527e+000 -3.263495109799e+001 -7.947744149979e+001 2.232259605397e+001 2.223408785111e+003
 3.396743676075e+000 1.015179909936e+001 3.189825455131e+000 -9.420848673037e+000 -2.523087551969e+001 9.234292885980e+000 -6.074589527501e+000 2.238070239051e+003
 3.131076208032e+001 2.343041108194e+001 3.049624694732e+000 4.399774894500e+000 -1.399736720344e+001 7.228338383924e+000 -5.202941214450e+000 -5.226438797259e+000 2.219189971968e+003
 -9.762171850175e+000 -2.961340246970e+001 -2.350702070106e+000 1.218684706141e+001 4.050057894812e+001 -1.142144656938e+001 9.488768911369e+000 4.515008271009e+000 1.031121589061e+001 2.232882286482e+003
 -2.596710186769e+001 -2.087505797355e+001 -2.795123384719e-001 -7.422247706807e+000 3.065731202151e+000 -1.814596677607e+000 2.259897735432e+000 3.359270054719e+000 1.667948167804e+001 -7.298622522267e+000 2.227692655143e+003
 1.456570120985e+001 1.184777481804e+002 -1.856339110443e+000 -4.360755876658e+001 -1.337773467154e+002 2.729871572359e+001 -2.946402886152e+001 -1.141594268850e+001 -2.081129727254e+001 2.112871423108e+001 1.438816934972e+001 2.176846702446e+003
 -8.485468370800e+001 -1.019047898707e+002 1.089828904682e+000 -1.223163889639e+001 4.534534842214e+001 -1.107535482605e+001 1.463123127596e+001 1.325378725633e+001 5.712240324784e+001 -2.815444147231e+001 -4.471128707379e+001 6.223651399398e+001 2.085103680456e+003
 -1.394998666454e+001 -1.333600044610e+001 3.517500907076e+000 -1.088184761587e+001 -1.324586877856e+001 6.416376634661e+000 -2.443450843482e+000 1.657660664295e-001 6.708880105293e+000 -1.647788228550e+000 -5.933048787043e+000 2.594913744095e+000 -1.944596448807e+001 2.237111692088e+003
 1.458433234581e+001 1.021763907062e+002 1.331713339910e+001 -6.790074990101e+001 -1.831430831943e+002 5.549268155957e+001 -4.231939818734e+001 -1.757209726713e+001 -2.918605460637e+001 2.924314687582e+001 1.851840761213e+001 -8.079436883604e+001 7.834457207865e+001 -8.082311345690e-003 2.124847692492e+003
 -3.051457954997e+001 -1.210645485462e+001 -2.884921797258e-001 -1.617847606970e+001 -1.354821206056e+001 2.446192435592e+000 -1.387173920811e+000 2.610342440755e+000 1.790613994563e+001 -6.040593089323e+000 -1.458098082404e+001 9.363434366623e+000 -4.772351260520e+001 -7.162006772834e+000 1.190673198532e+001 2.224564877654e+003
 1.636583201387e+002 -7.055322601144e+001 -3.084435394919e+001 2.176914937893e+002 4.015344841434e+002 -1.198000411530e+002 8.235783823699e+001 1.582727028308e+001 -5.803534693955e+001 -1.355024171669e+001 5.695878485691e+001 7.874307028389e+001 1.575755931841e+002 4.576322151982e+001 1.313308558329e+002 8.159037378463e+001 1.501271652602e+003
 4.272379793520e+001 1.394659258033e+001 8.439201987367e+000 5.804336018461e+000 -1.596409054955e+001 1.379316880943e+001 -6.818103971407e+000 -7.468634951596e+000 -3.025423687742e+001 1.392894487661e+001 2.296520710837e+001 -2.561724827026e+001 7.739077690350e+001 8.733776481596e+000 -4.010791120766e+001 2.485712870064e+001 -7.895678998399e+001 2.197713260348e+003
 -2.752090294694e+001 -7.286598327715e+001 6.830840673617e+000 1.618215342837e+000 3.709548789852e+001 -9.501917983794e-001 8.633849351825e+000 4.921907110247e+000 1.889701408143e+001 -1.134962601119e+001 -1.511833209685e+001 3.125889611295e+001 -5.598999042230e+001 -7.075921505799e+000 3.391342014985e+001 -1.484107438336e+001 3.667169357885e+001 2.352284141287e+001 2.216561441577e+003
 4.496918530125e+001 5.742456890211e+001 -9.362560278341e+000 2.335864474118e+001 1.278649069860e+001 -1.195597652778e+001 1.309572342430e+000 -2.915636687395e+000 -2.479421421409e+001 9.301846388104e+000 2.089071592340e+001 -2.001897601008e+001 7.110340851601e+001 1.180355284838e+001 -1.693826819080e+001 2.375756705071e+001 -1.209406090017e+002 -3.203689631787e+001 2.686020774900e+001 2.201902483298e+003
 -6.393073293148e+001 2.202813603059e+001 -1.363326595154e+000 -5.321346542298e+001 -8.645091742849e+001 1.573546119480e+001 -1.490633019181e+001 1.261251014341e+000 3.253211933384e+001 -5.477214397414e+000 -2.731722597047e+001 -4.565604739609e+000 -8.327969214798e+001 -1.536522056872e+001 -5.491647103145e+000 -3.471972022887e+001 2.196370492308e+002 4.654127180638e+001 -2.114467428493e+001 4.596343958596e+001 2.159852719709e+003
 1.094010445829e+002 8.114076694732e+001 -2.033512537159e+001 8.104583773719e+001 9.672095497319e+001 -4.153545133007e+001 1.752716408323e+001 -2.381490362334e+000 -5.466820899356e+001 1.380520977902e+001 4.743724808857e+001 -1.982527316763e+001 1.542018097948e+002 2.912333721974e+001 -6.091969555589e+000 5.704765032637e+001 -3.483575572935e+002 -7.161606958367e+001 5.321384141906e+001 -9.028748527107e+001 1.221093366094e+002 2.019000400891e+003
 3.523232136068e+000 2.907918040933e+001 -1.930974598101e+001 2.924737184402e+001 5.563984294702e+001 -3.399741162924e+001 1.445431848853e+001 6.808706744429e+000 7.701516902367e+000 -8.325595277557e+000 -3.068827659447e+000 1.636722202562e+001 -1.231144605679e+001 3.994165836931e+000 3.842921204666e+001 -1.134441078139e+000 -6.894822554117e+001 1.438367154130e+001 -8.030801716078e-002 -7.136312856442e+000 3.950808384077e+000 -2.364450725293e+001 2.214122453980e+003
 6.994261773464e+001 -2.709793262285e+001 -1.171657523820e+001 8.771448609797e+001 1.603152625029e+002 -4.657032262074e+001 3.235986696132e+001 5.660442603191e+000 -2.629826439075e+001 -3.989331290420e+000 2.506508927978e+001 2.911037894955e+001 7.075933623303e+001 1.923907758724e+001 4.887314838500e+001 3.549426385937e+001 -3.054437763863e+002 -3.601753648809e+001 1.706401583239e+001 -5.164429211314e+001 9.280435536742e+001 -1.470113228794e+002 -2.634255208311e+001 2.114579802018e+003
 1.451679381679e-001 -1.315160777588e+002 7.837788544502e+000 4.787111525201e+001 1.376957399808e+002 -2.108496496797e+001 2.870744043064e+001 9.035050667233e+000 1.046598421554e+001 -1.723283007533e+001 -6.701089544138e+000 5.991087080829e+001 -3.781458277409e+001 8.437097342266e-003 7.036119405682e+001 -5.366612968543e-001 -1.117295595187e+002 9.856580756033e+000 -2.585116525707e+001 1.070795768946e+001 2.321496050673e+001 -3.289490349778e+000 -9.411097305618e+000 -4.393045362365e+001 2.178407238593e+003
 -5.741162858187e+000 -4.989515750076e+001 1.223107685339e+000 1.782274944004e+001 5.447293759603e+001 -1.075728695581e+001 1.202471932462e+001 4.596585082505e+000 8.296720690383e+000 -8.600659345617e+000 -5.732620722808e+000 2.623374213549e+001 -2.506789955099e+001 -1.023361719864e+000 3.269431334494e+001 -3.700793131929e+000 -3.220575205401e+001 1.015905816304e+001 -1.285586569236e+001 8.145885324109e+000 2.221979556533e+000 8.098023660884e+000 -6.254013735246e+000 -1.197821713922e+001 -2.477097334155e+001 2.230120921892e+003
 -2.737350065410e+001 -1.995720508821e+002 1.087540073662e+001 5.490009778294e+001 1.863224786238e+002 -2.857222038195e+001 4.020701759009e+001 1.536847946052e+001 3.128839740172e+001 -3.034572122912e+001 -2.280110811365e+001 9.480090193570e+001 -9.745244153553e+001 -6.506413306885e+000 1.123396412274e+002 -1.586213874660e+001 -8.747528663409e+001 3.664659485089e+001 -5.057704323958e+001 3.682052781091e+001 2.218925056004e+000 4.649428341014e+001 -1.475243962251e+001 -3.146377114545e+001 -9.040709187730e+001 -3.907328635190e+001 2.096337713417e+003
 2.399715723988e+001 3.064563874849e+001 -6.341301823918e+000 1.542111592548e+001 1.320042113522e+001 -9.396971465592e+000 2.294350223420e+000 -8.579452641100e-001 -1.228128843741e+001 3.953533383772e+000 1.067473528269e+001 -8.329973014757e+000 3.593024667156e+001 6.543723882615e+000 -4.774360764706e+000 1.240364356170e+001 -7.089888495449e+001 -1.556099020336e+001 1.375916883444e+001 -2.096627292491e+001 2.487263926624e+001 -4.953731938096e+001 -6.058261189009e+000 -3.000714332552e+001 3.951964614522e+000 3.424124436917e+000 1.684014643966e+001 2.229365720563e+003
 -6.521641583897e+001 -5.626785008731e+001 6.308839785965e+000 -3.215759515443e+001 -2.014701834424e+001 9.952631312722e+000 -1.509085671974e+000 5.178884734036e+000 3.746980869471e+001 -1.376612956030e+001 -3.086764695530e+001 2.607754185949e+001 -1.033600706871e+002 -1.618550534159e+001 2.721553464217e+001 -3.518518640880e+001 1.716798083398e+002 5.023755839887e+001 -3.585194605030e+001 5.370349338850e+001 -6.973985419921e+001 1.258466693090e+002 3.287761552045e+000 7.390731879204e+001 -9.796148970714e+000 -1.050986904500e+001 -4.580705298657e+001 2.841818122986e+001 2.164204931354e+003
 -2.318986699764e+001 -8.372030490797e+001 1.048296253424e+001 2.367116946353e+000 3.884609653603e+001 2.843328486027e+000 8.287633889689e+000 3.955504507364e+000 1.545370281159e+001 -1.010117247604e+001 -1.271301464484e+001 3.080486378333e+001 -4.874006370767e+001 -6.597894162317e+000 3.015506780596e+001 -1.200797802057e+001 2.781319104777e+001 1.782052551470e+001 -2.349350865656e+001 2.486174973855e+001 -1.483709388585e+001 4.768332989934e+001 3.817890901886e+000 1.291476429564e+001 -2.807935638795e+001 -1.278280752832e+001 -5.120762179719e+001 1.300344802466e+001 -3.137075138889e+001 2.216959830766e+003
 1.156331515857e+001 8.233851973398e-001 -7.559684195474e+000 2.375359537956e+001 4.579518821308e+001 -1.824220327273e+001 1.026728056478e+001 3.271369380538e+000 -1.194489294304e+000 -3.738730699519e+000 2.568204018620e+000 1.138161280844e+001 5.511077256495e+000 4.137286996748e+000 2.157586306584e+001 4.960577522664e+000 -7.084091873631e+001 -5.649945836366e-001 1.701549656749e+000 -9.601474304860e+000 1.584895662956e+001 -2.947399862436e+001 -1.260239292454e+001 -2.851598155814e+001 -1.150552069694e+001 -4.538426607389e+000 -1.219926589206e+001 -6.255426355771e+000 1.176818418960e+001 2.221236191453e+000 2.232276852934e+003
 -7.896441806860e+001 -1.638751378007e+002 2.998533881142e+001 -3.920068946298e+001 -2.186914684500e+000 3.240703435859e+001 1.707618135536e-002 4.396534313931e+000 4.183504774293e+001 -1.740622524520e+001 -3.649871311179e+001 4.703925997437e+001 -1.286384625777e+002 -2.258788467249e+001 3.301163484325e+001 -4.012655796236e+001 2.047504335426e+002 4.998179785057e+001 -5.549244326564e+001 7.484769395275e+001 -7.221002233633e+001 1.667996960210e+002 2.415678558378e+001 8.713749416614e+001 -3.610488407829e+001 -1.960419288501e+001 -8.796541173346e+001 4.088110611914e+001 -9.738791736406e+001 -5.516989241123e+001 1.942529533421e+001 2.085393855289e+003
 4.095086271426e+001 8.807753320048e+001 -1.282160033010e+001 1.304900229212e+001 -1.565266642731e+001 -1.005073047091e+001 -4.022677605863e+000 -3.979398345851e+000 -2.390788867383e+001 1.151283547168e+001 2.010357396335e+001 -3.073819631918e+001 7.183275254444e+001 1.118091160372e+001 -2.771625218568e+001 2.135880024817e+001 -8.999293809040e+001 -2.934779556545e+001 3.057347634683e+001 -3.872401861463e+001 3.611070525990e+001 -8.354161161550e+001 -7.573987300436e+000 -3.902041280572e+001 2.390098140106e+001 1.269512731534e+001 5.359512847921e+001 -2.066310455571e+001 5.120884738235e+001 2.985728047876e+001 -7.438421826926e+000 7.953100119814e+001 2.199051243990e+003
 7.357555981734e+001 -1.206143384056e+001 3.681758298592e+000 4.965646556813e+001 7.198502969628e+001 -9.075052074052e+000 1.062583183000e+001 -3.935332978640e+000 -4.067256584653e+001 1.041950687584e+001 3.314718246071e+001 -6.084855880139e+000 1.041850603601e+002 1.706676194390e+001 -1.026721301025e+001 4.074228201554e+001 -2.278841190395e+002 -5.820346934408e+001 2.827374558593e+001 -5.348391064133e+001 9.023400827345e+001 -1.373624392455e+002 1.430195740979e+000 -9.706752817375e+001 -1.649268285006e+001 1.937223846018e+000 1.297065854968e+001 -2.835866848165e+001 8.187667074514e+001 2.052229945030e+001 -1.456617238540e+001 8.469431416875e+001 -4.398405979983e+001 2.138352959621e+003
 2.477897987175e+001 3.832792661440e+002 -6.385077697698e+001 -3.542132724948e+001 -1.843860634006e+002 -3.149675165474e+001 -3.269240106518e+001 -6.519505591021e+000 -1.628020228139e+001 2.427659252314e+001 1.641537638780e+001 -1.072782841479e+002 8.566157606301e+001 1.345008392524e+001 -8.124085343268e+001 8.241706944369e+000 5.452624874851e+001 -2.802955487530e+000 6.862132162674e+001 -5.493929396742e+001 -2.634392580623e+001 -7.913758601241e+001 -4.029989067817e+001 2.174829492243e+001 1.247242306097e+002 4.549260133892e+001 1.862531603817e+002 -3.034572072833e+001 5.000835345284e+001 8.147380842952e+001 -5.350411451349e+000 1.636144649172e+002 -8.562850280045e+001 2.002912737103e+001 1.849159203210e+003
 2.484516122686e+000 -2.857570861990e+002 2.373325555157e+001 9.096521829244e+001 2.698538256455e+002 -3.136683735935e+001 5.482633423630e+001 1.606895340089e+001 1.690961372855e+001 -3.218251281549e+001 -1.124359970722e+001 1.183743578228e+002 -6.917915712017e+001 -7.058304762363e-001 1.316555517677e+002 1.350704388309e+000 -2.181220892552e+002 1.218639474277e+001 -5.247313381537e+001 2.253840375525e+001 5.130409053602e+001 -4.572714086743e+000 -9.422345831877e+000 -8.632128213059e+001 -1.273976417393e+002 -4.921766113372e+001 -1.821659531544e+002 9.185709138914e+000 -1.769281956983e+001 -5.900423684934e+001 -1.990517908358e+001 -8.036604980682e+001 5.058265699279e+001 -3.973131719749e+001 2.762558771613e+002 1.977025377504e+003
 -2.387351491837e+001 2.164367320898e+001 -1.061312162186e+001 -5.172759747596e+000 -2.812870115696e+000 -1.195644449599e+001 2.162485587337e+000 4.288011951988e+000 1.735662439719e+001 -6.913359876560e+000 -1.275621665396e+001 7.933309517125e+000 -4.078533244089e+001 -4.049661682903e+000 1.940223957246e+001 -1.451307887635e+001 4.987454273792e+001 2.654823900464e+001 -9.054813392076e+000 1.495150303562e+001 -3.011196516207e+001 3.665334196849e+001 -1.270280651493e+001 2.265780276027e+001 3.196153731789e+000 -2.867270143500e+000 -8.606201731395e+000 6.892550726815e+000 -2.653669053571e+001 -4.506084795474e+000 -4.785442446630e-001 -1.702876673915e+001 1.100137021600e+001 3.681706981006e+001 -2.943951227375e+001 1.327930978250e+001 2.222082951787e+003
 -4.097105850394e+001 5.142435349468e+001 1.602298070128e+001 -8.778796055881e+001 -1.842117634479e+002 5.684827167049e+001 -3.946484830254e+001 -1.143274628752e+001 5.061234715711e+000 1.485571815447e+001 -8.940803920167e+000 -5.218542432767e+001 -1.491325196262e+001 -1.319552205687e+001 -8.218910309450e+001 -1.873535485310e+001 2.620097087694e+002 6.420786529848e+000 1.532798796780e+000 2.856480007116e+001 -6.376417961831e+001 9.827774267561e+001 3.615090887017e+001 1.058059462102e+002 5.690312436435e+001 2.129691781757e+001 6.523514057699e+001 1.885383978929e+001 -3.888763495894e+001 2.233711241161e+000 2.892628457863e+001 -4.875945691945e+001 1.641229691067e+001 5.946185217581e+001 -3.824118679658e+001 1.076575525765e+002 -5.527269096848e+000 2.134699974962e+003
 -8.627071726403e+001 -4.801777900425e+001 1.447671208157e+001 -6.816815050788e+001 -9.018574898890e+001 3.378353388317e+001 -1.650270638258e+001 1.125352664808e+000 4.229095389489e+001 -9.324845201263e+000 -3.679281648306e+001 9.509881227121e+000 -1.179223910742e+002 -2.280335399632e+001 -1.709080612408e+000 -4.514585086033e+001 2.853866937383e+002 5.608387294089e+001 -3.910715006322e+001 6.975946621889e+001 -9.893599553368e+001 1.747165302959e+002 1.870593307524e+001 1.201177071427e+002 9.317769457728e+000 -3.796016555550e+000 -2.710196602449e+001 3.842311244039e+001 -9.816177044862e+001 -3.433696892318e+001 2.409681290536e+001 -1.266843331303e+002 6.295621079899e+001 1.103282200787e+002 4.676326772462e+001 1.764464832917e+001 -2.981722773400e+001 -8.261670558679e+001 2.102538977017e+003
 3.270029437491e+001 3.426321276147e+001 -2.134010916425e+000 1.093356535728e+001 -2.747909957749e+000 -9.593911503048e-001 -2.193840214381e+000 -3.728745222395e+000 -2.024165326025e+001 8.724478965003e+000 1.628353456410e+001 -1.822884843694e+001 5.564219413748e+001 7.868683242986e+000 -2.120982557560e+001 1.792665956101e+001 -7.445590093251e+001 -2.720738233243e+001 1.975330713877e+001 -2.724584834864e+001 3.354746584193e+001 -6.157837147758e+001 1.079328662599e+000 -3.257209591273e+001 9.575333568060e+000 7.346247648217e+000 2.996939959005e+001 -1.412843777498e+001 3.913517450014e+001 1.729850688287e+001 -4.223481669318e+000 4.956951157578e+001 -2.678067514142e+001 -4.050305740130e+001 -2.976086358577e+001 1.761346571458e+001 1.426095367432e+001 1.319725014875e+001 4.758618097590e+001 2.220374502059e+003
 3.241727599067e+000 4.351731863395e+001 -3.123529670759e+000 -1.251582606330e+001 -3.986629695693e+001 5.282322925000e+000 -8.404583676203e+000 -2.865564911793e+000 -4.882264579027e+000 5.782093563543e+000 3.491985957148e+000 -1.925389586916e+001 1.634639801977e+001 8.861210769428e-001 -2.203779420525e+001 1.941159741219e+000 2.419294825251e+001 -5.177183077334e+000 9.657565267900e+000 -6.056505046968e+000 -3.600028361206e+000 -5.669573557050e+000 2.146587039929e+000 9.254050345258e+000 1.936906255560e+001 7.959401594838e+000 2.958375835463e+001 -2.728921251663e+000 6.826444473917e+000 1.020225819785e+001 2.677439100175e+000 1.632105392142e+001 -9.978453337994e+000 1.078248164286e+000 -4.137475498805e+001 3.962020118857e+001 6.221471701503e-002 -1.472873882846e+001 2.352457556272e+000 -4.828575555235e+000 2.234644521046e+003
 -1.023223450649e+002 -1.710376004552e+002 3.274278297087e+000 4.205406342430e+000 1.092376272841e+002 -2.264324922162e+001 2.900715353985e+001 1.971048525800e+001 7.326473590825e+001 -4.075675119223e+001 -5.671150450808e+001 9.831341954720e+001 -2.029584722628e+002 -2.333593944660e+001 1.227457110265e+002 -5.772562521756e+001 1.450970070063e+002 9.776426607976e+001 -7.730040808697e+001 8.966555507826e+001 -9.176285785800e+001 1.839753236956e+002 -1.962303522646e+001 6.784197122603e+001 -6.945851149429e+001 -3.986708856058e+001 -1.521305788841e+002 4.463438949538e+001 -1.283877900522e+002 -6.921028600651e+001 1.787839129597e+000 -1.678472613848e+002 9.540019368441e+001 1.199275681267e+002 1.483733134268e+002 -1.315427563797e+002 -4.864539764214e+001 4.794111851397e+000 -1.381817943391e+002 7.087161390999e+001 2.711008406158e+001 1.968760054029e+003
 -1.210542666999e+001 -6.114391607471e+001 1.049841119771e+001 -1.013067645273e+000 1.996597737509e+001 7.441344918101e+000 3.480003026987e+000 1.200319033138e+000 6.724150360426e+000 -4.636364689939e+000 -6.146388040166e+000 1.717710924610e+001 -2.461746639816e+001 -4.219439132502e+000 1.266811774607e+001 -5.568107768126e+000 1.836330330223e+001 6.108733435401e+000 -1.403496608137e+001 1.493780972050e+001 -5.723025224895e+000 2.843286901834e+001 7.316160616954e+000 8.026947595447e+000 -1.780046977299e+001 -7.286371221927e+000 -3.055712145731e+001 8.190724620160e+000 -1.701730724671e+001 -1.539221487504e+001 2.917375949676e+000 -3.632525092818e+001 1.878842578018e+001 7.970374634638e+000 6.206612957974e+001 -3.945680979022e+001 1.209679326133e+000 -1.792481948298e+000 -2.019824554903e+001 9.120874157485e+000 6.433077564298e+000 -3.602022806739e+001 2.229828908596e+003
 2.616237082915e+001 -8.581748250412e+000 -2.038805159247e+000 2.686914982528e+001 4.713307257504e+001 -1.171855824350e+001 8.874172977823e+000 7.273916240659e-001 -1.165632797143e+001 5.474900175333e-001 1.029766896424e+001 5.940424605937e+000 3.051226356181e+001 6.682988015832e+000 9.813202660894e+000 1.384164869759e+001 -1.016458980222e+002 -1.644714241047e+001 7.725684564381e+000 -1.909612136257e+001 3.381438467715e+001 -5.256890439098e+001 -5.687391630485e+000 -4.238161825907e+001 -1.252487781941e+001 -2.559452878207e+000 -5.610807829984e+000 -1.072104704318e+001 2.819015824143e+001 5.680301525371e+000 -8.513086922623e+000 3.135213930040e+001 -1.485893293545e+001 -3.644033767353e+001 8.521183238463e+000 -2.567632001255e+001 1.038520692400e+001 3.240575619088e+001 4.267905250192e+001 -1.303455370888e+001 2.336263681262e+000 3.197866654780e+001 2.867489725271e+000 2.226126677731e+003
 -1.179129528253e+000 3.304624622318e+001 7.651973851761e+000 -3.277602415875e+001 -8.091208867530e+001 2.590185369427e+001 -1.828550956923e+001 -7.074630419618e+000 -8.447496747494e+000 1.090801405873e+001 4.539806350276e+000 -3.110230643359e+001 2.186160908864e+001 -1.938217971410e+000 -4.699343602944e+001 1.032011449400e+000 7.675320034598e+001 -1.191356366459e+001 9.916108825665e+000 -7.638054021569e-001 -9.822432548546e+000 1.260912076413e+001 1.794952561178e+001 2.955073983512e+001 2.807645868455e+001 1.262787395106e+001 4.154193084626e+001 1.484738760872e+000 2.702956164663e+000 8.564197175855e+000 1.091974643638e+001 1.266522040687e+000 -5.257487154644e+000 4.123293885222e+000 -2.439350572603e+001 5.184400004709e+001 6.034303526359e+000 -3.991031462837e+001 -1.237821775550e+001 -4.561868041843e+000 -8.358812653495e+000 3.762709543140e+001 2.677849386271e+000 7.272021453150e+000 2.220900878851e+003
 1.780436584101e+001 1.056642179129e+002 -8.529701074443e+000 -2.105798192099e+001 -8.220015492069e+001 8.715824068899e+000 -1.766901630765e+001 -6.904377272804e+000 -1.651661580460e+001 1.460951905231e+001 1.257654140767e+001 -4.586658213625e+001 5.225204397145e+001 4.678693536653e+000 -5.136883779424e+001 9.801812769682e+000 2.281154135353e+001 -1.903946025578e+001 2.700222813710e+001 -2.224669932317e+001 3.611581039993e+000 -3.372660039535e+001 3.254296471387e+000 7.314041012278e+000 4.371745311733e+001 1.891948143225e+001 7.177002160843e+001 -1.080666604877e+001 2.754086768213e+001 2.760237580825e+001 3.508156198642e+000 5.246055997706e+001 -3.045820069194e+001 -1.093065016435e+001 -1.003260487339e+002 8.938834380466e+001 4.001514942746e+000 -2.471710246791e+001 2.179070251298e+001 -1.689629272919e+001 -1.464599818025e+001 7.964122351393e+001 1.712762629843e+001 3.238406665365e-001 -1.810827902490e+001 2.204384984319e+003
 4.432035990047e+001 8.314069054801e+001 -7.834574119966e+000 7.287793922957e+000 -2.929790053755e+001 -1.382550982892e+000 -7.800856955102e+000 -6.164501478590e+000 -2.848921620345e+001 1.464902487387e+001 2.298119259857e+001 -3.674711005952e+001 8.196524550886e+001 1.117394215677e+001 -3.991080966930e+001 2.400547659591e+001 -8.267245174331e+001 -3.659732101343e+001 3.286386239125e+001 -4.028447792856e+001 3.974177361926e+001 -8.533284312075e+001 -4.199120072824e-001 -3.678537513790e+001 2.689234980446e+001 1.503608534850e+001 6.031362832120e+001 -2.086689810222e+001 5.534467164968e+001 3.075236369137e+001 -4.770532786487e+000 7.914361078922e+001 -4.299758101935e+001 -4.991199193117e+001 -7.720311870225e+001 5.380519469393e+001 1.630618234586e+001 9.236597149728e+000 6.432766050397e+001 -2.964289507945e+001 -1.093791956958e+001 1.090726569499e+002 1.779095035169e+001 -1.522142499105e+001 -1.028009022673e+001 -3.300655997886e+001 2.194407761215e+003
 2.824975318522e+001 1.110112162280e+002 -7.319443953683e+000 -1.887809373529e+001 -8.457883873742e+001 1.088262421048e+001 -1.894581356612e+001 -8.503930402209e+000 -2.357723035338e+001 1.777490014782e+001 1.802231676838e+001 -5.179529669112e+001 7.065985024146e+001 6.907372584818e+000 -5.998360956769e+001 1.581304066795e+001 1.640570127789e+000 -2.900193736124e+001 3.284714173282e+001 -3.030245682423e+001 1.485785547681e+001 -5.194828119323e+001 5.733843183661e+000 -2.157966613949e+000 4.612773248664e+001 2.126639236350e+001 8.064774604237e+001 -1.481836961739e+001 3.985610255885e+001 3.224735169100e+001 2.944678041717e+000 6.569867675319e+001 -3.798066195756e+001 -2.478226863130e+001 -1.033808776855e+002 9.279893056173e+001 9.893126871442e+000 -2.212410740105e+001 3.600186619713e+001 -2.348377557021e+001 -1.592562022568e+001 1.029022279334e+002 1.903359418553e+001 -3.763489464773e+000 -2.049765501654e+001 -4.120222509975e+001 -4.202698414108e+001 2.192580986746e+003
 -1.574924884779e+001 2.792490561308e+001 -3.399913462005e-001 -2.387161823439e+001 -5.092076586654e+001 1.011950512078e+001 -1.000173815213e+001 -1.895964485854e+000 5.383719714747e+000 2.457374994903e+000 -5.119942799131e+000 -1.350518686805e+001 -1.216534039606e+001 -4.029102992972e+000 -1.730698400557e+001 -8.275181945263e+000 7.927932737127e+001 8.398975971782e+000 -2.791848211641e-001 9.592139681468e+000 -2.426540736878e+001 3.188849214092e+001 4.657159747481e+000 3.260810955927e+001 1.801006247507e+001 5.645017114369e+000 1.852173147788e+001 5.714042429631e+000 -1.530403862317e+001 1.418336478835e+000 6.892158388713e+000 -1.244439975611e+001 4.809237835226e+000 2.474954084290e+001 -2.689541912724e+001 3.692201128771e+001 -6.991017447272e+000 -2.862862315554e+001 -2.703429666570e+001 6.235034303588e+000 -4.663746584323e+000 -7.803392164752e+000 1.424657442217e+000 1.093697481292e+001 -8.899909715366e+000 -7.562073662749e+000 4.611888278584e+000 -5.463005893284e+000 2.231308861196e+003
 9.301214680601e+000 -4.532598367146e+001 1.632306611393e+000 2.531483322306e+001 6.157958767619e+001 -1.133532986827e+001 1.258508583689e+001 3.264419147125e+000 -6.401929524296e-001 -5.492658032187e+000 1.436844871946e+000 2.167077868434e+001 -1.606043218034e+000 2.437827032242e+000 2.662211455190e+001 4.645188765598e+000 -7.256987899109e+001 -2.392194217959e+000 -5.656424014905e+000 -3.352154859110e+000 1.946008809740e+001 -1.978500967586e+001 -5.328455844078e+000 -2.938808705002e+001 -2.473037009788e+001 -8.969047135012e+000 -3.144394011934e+001 -2.570420822360e+000 6.788043253231e+000 -7.071728068303e+000 -6.847455492268e+000 -4.016516752290e-001 2.418800762588e+000 -1.818093696639e+001 4.298209787262e+001 -5.041362375798e+001 4.559708878122e+000 3.022661811443e+001 1.823688207662e+001 -1.476044474043e+000 7.113924139335e+000 -1.143376702159e+001 -4.712497830965e+000 -9.322281906935e+000 1.187379724835e+001 1.429877446227e+001 3.347678646823e+000 1.366359338353e+001 9.723747079809e+000 2.229511392710e+003
 4.602246740245e+000 1.102461081561e+002 -5.681300931852e+000 -3.850492635550e+001 -1.148536083088e+002 1.852312349775e+001 -2.425953406682e+001 -8.211874763244e+000 -1.185675919988e+001 1.562694927328e+001 8.019758347098e+000 -5.204054664436e+001 3.955078433399e+001 9.774299457228e-001 -6.206025751356e+001 3.129490962838e+000 8.292549689945e+001 -1.270748221423e+001 2.388286383351e+001 -1.243129345554e+001 -1.401324704161e+001 -5.353857642995e+000 9.089083197953e+000 3.203363074631e+001 5.247391816347e+001 2.148648782045e+001 7.839970611518e+001 -5.024692805100e+000 1.360028176030e+001 2.515016774923e+001 9.300811365741e+000 3.547320155841e+001 -2.299211846491e+001 7.183721130731e+000 -1.035370136688e+002 1.062460195031e+002 1.460451611370e-001 -4.581942656785e+001 -1.352903907396e+000 -1.087695518694e+001 -1.651860151970e+001 6.777787424217e+001 1.541410505513e+001 8.468197732384e+000 -2.426595922337e+001 -3.810508545950e+001 -2.618263964017e+001 -4.115576783531e+001 -1.385416122350e+001 2.007448832887e+001 2.196295874449e+003
 -1.181507269123e+001 -2.708299568686e-001 -2.572958622511e+000 -2.645779661024e+000 5.136960643319e-001 -3.501315751878e+000 1.225602378866e+000 1.877477516442e+000 8.143877097612e+000 -3.497271189435e+000 -6.165627654996e+000 5.592346022727e+000 -2.045204392389e+001 -2.318901546652e+000 9.369501597175e+000 -6.974088593460e+000 2.491736669701e+001 1.190434264395e+001 -5.852928655998e+000 8.496960387023e+000 -1.354832440991e+001 1.992910569428e+001 -3.853294245183e+000 1.112049253950e+001 -1.106274088220e+000 -2.133238908104e+000 -7.905785822717e+000 4.159051081596e+000 -1.366418142881e+001 -4.203118832260e+000 4.208145682968e-001 -1.278034059765e+001 7.449457041284e+000 1.650193525186e+001 -2.705045739596e+000 -8.644216300410e-002 -7.511610587734e+000 -3.076007410908e+000 -1.572808887172e+001 7.293018112380e+000 9.203916006359e-001 -2.534641433676e+001 -1.260045630775e+000 4.815711857349e+000 2.719095214698e+000 4.111374371459e+000 9.436835884053e+000 6.819427186796e+000 -2.787799289383e+000 1.319603596202e+000 2.184669115497e+000 2.237610708611e+003
 -3.035877443769e+001 -1.305913049519e+001 7.119238368596e+000 -3.025729528974e+001 -4.630348852276e+001 1.745288132819e+001 -9.276516402029e+000 -1.029786029026e+000 1.302379637359e+001 -1.124304848859e+000 -1.196353283637e+001 -2.282079173498e+000 -3.707492573696e+001 -8.444435675424e+000 -9.680895987124e+000 -1.541249253276e+001 1.142316256900e+002 1.691548051564e+001 -1.206245589730e+001 2.452176888242e+001 -3.608988209042e+001 6.381877832272e+001 1.057234733746e+001 4.757821353091e+001 8.012303516819e+000 9.093214714502e-001 -2.278921626519e+000 1.389527318907e+001 -3.387202977840e+001 -1.080658116987e+001 1.067463519844e+001 -4.505248991689e+001 2.145938817904e+001 3.897976881447e+001 1.450869241785e+001 1.459600611595e+001 -8.811689793630e+000 -3.667014711881e+001 -5.091813614462e+001 1.579442054712e+001 -5.672819286895e-001 -4.130569668630e+001 -6.945373423431e+000 1.626027779834e+001 -8.289130381477e+000 4.641971783298e+000 2.081006210074e+001 9.100953378564e+000 -1.100735903349e+001 8.421646688655e+000 -4.656150397125e+000 -4.886308354515e+000 2.221359731195e+003