#BIOSYM hessian 1
@Type: Hessian Update
@Units
 distance: 	A
 energy: 	Kcal/Mol
#header
@natom 19

#label
L1      L2      L3      L4      L5      L6      L7      L8      L9      L10     L11     L12     L13     L14     L15     L16     L17     L18     L19

#element
Li Li Li Li Li Li Li Li Li Li Li Li Li Li Li Li Li Li Li

#matrix
57
 6.050102369775E+00
 -5.886592102726E+00 1.718542402177E+01
 2.746178586298E+00 -1.763881407570E-01 5.108932019153E+00
 1.120602613963E+00 -1.370123970620E+00 4.170714736076E-01 1.028863720043E+01
 5.215205031434E-01 -6.196169048006E-01 -9.110284388628E-02 -4.862581515399E+00 1.955184547715E+01
 -6.606822347944E-01 -6.307009003677E-01 -8.754305952607E-01 -1.672793189278E+00 3.586296408429E+00 1.806596355906E+01
 5.884697070408E-01 -2.646526222748E+00 4.267625828276E-01 -9.927128679060E-01 -1.464449899357E+00 -2.678213420611E+00 2.417584066526E+01
 2.517991289950E-01 -9.645945756592E-01 -4.817195255008E-01 4.845926369321E+00 -1.948964936425E+00 -4.240498142420E+00 2.398474193154E+00 2.807253795156E+01
 5.962317977298E-01 3.717853736463E-01 1.263834623851E+00 1.195972089847E+00 -5.155938301180E+00 -7.792540043439E+00 8.864312912498E-02 1.115665057999E+00 2.527127151040E+01
 -5.695926432551E-01 -4.047566890593E-03 -6.677191309016E-01 1.965675532416E-01 -7.262617101360E-01 -3.760741637164E+00 -1.140170504101E+01 -7.579066845257E-01 1.945915542168E+00 2.452648078853E+01
 -1.221350091008E+00 1.576909845479E+00 -9.343373742960E-01 -1.436998700584E+00 -3.288890522886E-01 2.868373874635E-01 -6.299083582480E+00 -9.297813395781E-01 5.080751398946E+00 7.930517882617E-01 3.830311377740E+01
 9.772421214587E-01 -2.844035463580E-01 7.040517063679E-01 -2.447614939917E+00 -1.228171343320E+00 -3.068084960500E-01 2.491168055393E+00 3.404403029848E+00 4.955732301535E+00 2.759330436896E-01 4.204330261618E+00 2.182337522209E+01
 4.131338474052E-01 1.073216328010E+00 1.555144305384E-01 -1.369602244383E+00 -6.266822414690E-01 -1.395085948532E+00 5.378684883945E-01 4.020990111290E+00 2.683328177033E+00 1.809927119269E+00 -2.955590420263E+00 1.313486897108E+00 1.358450162344E+01
 1.980632854094E+00 -1.694130787184E+00 1.229590418888E+00 -2.136869627699E-01 3.794452169995E-02 1.852698325325E-01 -5.310614581824E+00 -1.238629862949E+00 -5.930785716364E-01 -9.591187697588E-02 -1.016260401231E+01 -2.634980338336E+00 4.522319620154E+00 2.100942365589E+01
 4.267483782885E-01 3.377278334308E-01 1.771089738813E-01 -1.355878712321E+00 -8.009923681434E-01 -5.264178696856E-01 9.049545356257E-01 -6.757467080686E-01 2.761733282699E+00 -2.486010150921E-01 1.203417669815E+00 3.285201991765E+00 9.052755729478E-01 1.650801559364E+00 4.727962189866E+00
 -1.358228583185E+00 4.794728062141E-01 -5.757643455830E-01 -3.233877086089E+00 2.055580435194E+00 -6.114310911270E-01 3.293466569808E+00 -1.162448667947E+00 8.630256059260E-01 -1.408985451699E+00 5.677670711104E+00 -6.416510685259E-01 1.716622009822E-01 -1.889166018402E+00 8.840044647872E-01 2.035444435561E+01
 8.055713478244E-01 -2.486536578840E+00 6.829288391081E-02 -5.603120450751E-01 1.219822619285E-01 -4.386321826674E-01 -1.327705590926E+00 4.867573474587E-01 6.110951525496E-01 6.808749576616E+00 -1.323356451756E+01 1.122355194344E+00 2.498002270784E+00 5.798642637147E-01 8.094973357406E-01 -7.365277433424E-01 2.523063058855E+01
 -6.043100812821E-01 9.934037652509E-01 -3.331065845440E+00 -1.747641659490E+00 2.233762215162E+00 -2.567061414615E-02 -3.684609586184E+00 -1.843247219416E-01 -2.401149661690E+00 3.705019064064E-01 6.334129701444E-02 1.817802420847E+00 -1.103735051136E+00 -1.170116561404E+00 1.841411396603E+00 -3.526935188799E-02 -1.498410901217E+00 1.865741158917E+01
 1.888799305526E+00 -2.318764289040E+00 1.061449703532E+00 -4.561464610126E-01 -2.325497500166E-01 2.437501578977E+00 -3.802737006200E+00 -6.668161304021E+00 -1.679290666589E+00 -9.073315259927E+00 -3.449592778568E+00 -4.915816721040E+00 -4.024927765259E+00 1.196908484884E+00 2.723477250683E-01 -1.201603909947E+00 -1.685155919861E+00 2.762307749138E+00 2.228533039316E+01
 -1.460635902474E+00 7.063530509303E-01 3.473943089702E-02 -5.857647531134E-01 -1.403071560821E+00 2.294346593135E-01 3.063902007506E+00 2.274038137814E+00 1.158495633733E+00 -4.591303053588E+00 -1.548592269700E+00 1.081791658206E+00 2.525661471763E+00 -1.594375974896E+00 1.341905765364E+00 8.174847182600E-01 -1.707688641061E+00 1.135595919709E+00 2.702518695414E+00 1.305333611663E+01
 3.785029581159E-01 3.262078264410E-01 -1.154495780152E+00 -1.391543897428E+00 1.058598383341E-01 1.275715030140E+00 -2.715547366987E+00 -6.963570674160E-01 -3.820402860281E+00 -2.412590354306E+00 -3.343558243985E+00 1.179036844821E+00 -2.427010234580E+00 3.898624487172E+00 -7.734603803022E-01 3.188770263111E-03 -1.184498745285E+00 3.367617379557E-01 5.411251524379E+00 -7.244816427164E+00 2.099843268324E+01
 4.743479814305E-01 -1.220220509784E+00 1.035695407741E-01 -1.336243610990E-01 -7.894521990718E-01 -2.414418426692E+00 -2.287344639822E+00 2.658685185217E+00 1.719660457011E+00 -1.076265332872E+00 3.128449777672E+00 5.584493787012E+00 -1.741954197426E+00 -1.106957648746E-01 -5.815319543527E-01 -1.468579499298E+00 1.422207733615E-01 1.318785167854E+00 -2.728339969829E+00 4.942809979352E-01 -2.946430072311E+00 1.902144904047E+01
 -9.319909745189E-01 9.511300785028E-01 -1.146259839808E-01 5.504965858436E-01 1.422994542704E+00 1.355636065619E-01 -5.126119487676E-01 -2.974774651417E+00 6.818810689444E-01 1.142007272373E+00 1.998849980207E+00 -2.430093118407E+00 1.211649899384E+00 -5.555599737576E+00 -7.374413317261E-01 4.495584397186E-01 -3.894371115073E+00 2.179511661604E+00 -5.501642783497E-01 -6.357564138106E-01 -2.493228420618E+00 -1.980252341748E+00 1.103908529021E+01
 1.114130255231E+00 -9.131792954413E-01 1.899962298805E+00 2.082372792567E+00 1.442995828144E+00 -1.239023564474E+00 -5.525216990854E-01 1.720131037132E+00 8.418733555123E-01 5.963625855265E+00 2.359539319312E+00 -9.963035528006E+00 4.668141280310E-01 -2.779974926114E+00 -4.324238081036E+00 3.272087640597E-01 2.398225492285E+00 -8.428580140226E+00 -3.991704188592E+00 -5.512806207634E-01 -5.079884928536E+00 -7.413322805916E+00 3.686659314972E-01 2.157577893039E+01
 -3.143268315839E+00 3.678497042354E-01 -2.429887739624E+00 9.465391674427E-02 4.793851393403E-01 7.428217073627E-01 -1.346903653344E-01 1.276261880526E+00 -1.716577793718E+00 1.566502950401E+00 1.523448888784E+00 -2.139093827926E-01 -4.824771532967E-02 -5.815564352199E-01 1.394897876784E+00 -1.167403536731E+01 -4.777826599601E+00 1.886346191107E+00 -1.809532968107E+00 6.026946274380E-01 -1.133638285629E+00 1.296506199632E+00 -6.339456395010E-02 -6.108189255263E-01 2.791752386943E+01
 -1.297515638357E+00 6.670082886382E-01 -2.894400738104E+00 -8.575805186949E-01 -5.505037242043E-01 -1.856745922960E+00 1.285594786334E+00 -9.620280653834E+00 2.126235570297E+00 1.597204098980E+00 5.442232041718E+00 -1.292528977683E+00 -1.974835113082E+00 -8.940949224740E-02 -6.656785541965E-01 -5.345453226441E+00 -2.636656138503E+00 2.800338144477E+00 8.817386923387E-01 -1.101876512219E+00 6.893724248471E-02 -1.644941774377E+00 2.500903906302E-01 -3.917141301971E-01 8.295665665901E-01 1.952536093835E+01
 -3.519639716970E+00 6.640587941046E-02 -5.180177194366E+00 -1.350333285481E+00 -1.189806411204E+00 4.902740042881E-01 -1.434261066358E+00 1.412632256413E+00 2.324299898510E+00 1.277395583951E-01 1.797848484729E+00 -2.505088440479E+00 -2.158225569715E-01 -7.640741464955E-01 -1.631877367438E-01 2.718354197101E+00 1.486464201821E+00 1.864551319033E+00 -1.971838025797E+00 1.982539447510E-01 3.490263818669E-01 -1.439556088187E+00 5.035854952160E-01 -8.367203155494E-01 2.710895757717E+00 1.600340452119E-01 2.259594194778E+01
 6.800349630349E-01 -1.611221068096E-01 9.143656732185E-01 -2.595326907089E+00 -3.837977542254E-01 6.257980148739E-01 4.837310535493E+00 -4.259264975261E-01 -2.895151967291E-01 -6.776138354050E+00 5.347278209174E+00 -7.829325428103E-01 -3.626810509065E+00 -3.033844284858E+00 2.055647397220E+00 1.085560243992E+00 -1.077444776742E+00 3.026566428840E-01 2.897690979352E-02 2.256607729630E+00 -2.279942099532E-01 -6.832319088707E-01 -1.757644845857E-01 4.174928584374E-01 -1.645378045527E+00 4.534693281051E-01 -1.728975954124E-01 1.137962318253E+01
 4.351901828907E-02 -1.030766244576E+00 1.030605830743E+00 -1.390957961908E+00 -1.246270270625E+00 3.728701825516E+00 -2.114804669387E+00 -1.000225427500E+01 -4.290680699622E-02 4.231752501978E+00 -4.279242294685E+00 -3.629260949681E+00 -2.777792382924E+00 -1.432021413000E+00 6.595947971098E-01 5.803328829233E-01 2.393692012935E-01 1.670352470065E-01 1.723624012496E+00 -8.889601704768E-01 -4.904170810797E-01 -4.034261493070E-01 7.582057507430E-01 3.414968544283E-01 1.113728367750E+00 -4.593180726792E-01 -1.461013248664E-01 -1.531323863791E+00 2.102104707244E+01
 -6.758656907829E-01 1.963914945503E+00 -1.121807480030E+00 2.240904563794E+00 3.461329529819E+00 -8.838641145925E+00 -5.179338380561E-01 2.095301804141E+00 4.886622638544E+00 2.968938219097E+00 -2.049528468082E-01 -5.637332285747E-01 5.386609654451E-01 -1.745946862837E+00 -8.699151753500E-01 1.345279415996E+00 -3.984528961231E-01 1.271830996138E+00 3.021327629606E-02 -3.967991673978E-01 1.142157052780E+00 2.089832194226E+00 -8.124086972124E-01 2.619023455201E-02 1.881266415485E-02 5.343944175402E-01 -1.380159965036E+00 -5.725414031954E+00 -3.198111545200E+00 1.655045778541E+01
 -1.647741435918E+00 1.425549353181E+00 -1.743442074359E+00 -8.238583685452E-01 9.034104649847E-01 2.371983376363E+00 5.862279077255E-01 5.187205900369E-01 -1.303554866146E+00 -3.185710091233E-01 -8.269270942767E-01 -8.581441200553E-01 8.581375344813E-01 1.034693375794E+00 6.008869050566E-01 -3.491876205756E-02 -3.608185029305E-01 1.956818069610E-01 -1.675902457977E+00 1.850664368226E+00 3.660909139299E+00 -2.018088592958E+00 -6.829533390758E-01 -1.604446709858E+00 5.851639299765E-01 3.166982228864E-01 1.312555679306E+00 4.056498798667E-01 -1.752085751078E-02 2.216027845306E+00 7.143225910086E+00
 -1.781457602009E-01 9.572043684010E-01 -1.520000206353E+00 2.267000641516E-02 -4.718813337436E-01 1.762875797677E+00 2.544032386572E+00 -9.601702926904E-01 -1.989551783655E+00 -1.991829229009E+00 -6.010713048600E+00 -5.850731303143E+00 1.445499598698E+00 6.722205099123E-01 -9.427192509574E-01 2.414284643260E-01 5.920305124970E-01 1.158409937590E+00 1.386865546130E+00 -1.063397585721E+00 -1.260974898731E+00 1.935057511406E+00 2.617022535036E-01 -2.297324468506E-01 -5.119015097049E-01 9.502907133374E-01 5.868425227714E-02 -4.189159054629E-01 -6.314500690845E-01 -4.307710217541E-01 -1.885565793509E+00 1.027233365805E+01
 8.495707728025E-01 -7.173611195280E-01 -3.137545625012E-01 1.585292398434E+00 -3.788409392361E-01 -1.301058502632E+00 3.302656728012E+00 4.696444204216E+00 1.240248048363E-01 -1.439667504628E+00 -7.801077931364E+00 -8.570933550142E+00 -5.608833349140E-01 1.988958969635E+00 -9.548814542853E-01 -1.913874976591E+00 1.158612995552E-02 -3.098065143683E-02 1.825081655078E+00 -2.453159540073E+00 -3.186160605409E+00 -1.950292054222E-01 1.769228746667E+00 2.619135794280E+00 -5.668248914406E-01 -8.306694034652E-01 4.195783550476E-01 -3.056620296280E-01 -6.554947023816E-01 -1.101727605560E+00 -2.149948530439E+00 6.875726744807E+00 1.257850055161E+01
 -1.237860278380E+00 -1.339226311208E+00 -2.336935693422E-01 2.555852015743E+00 2.310399368168E-01 -7.981581906942E-02 -1.570903382764E+00 1.689267753405E+00 -1.777052584359E-01 3.204948370163E+00 5.471432286092E-02 -6.707976716053E-02 -1.285247984720E+00 6.874656440817E-01 4.530735490043E-02 -6.148920857463E-01 -1.806541482687E+00 -2.529265730062E+00 1.495566932364E+00 -1.932253355275E+00 3.877195392321E+00 1.961612981710E-01 -1.456058975386E-01 -1.844129265534E+00 1.586189191253E+00 7.369695906812E-02 4.130977017554E-01 2.663158508195E-01 -2.912121456150E-01 -1.709602833982E+00 -4.159530208491E+00 2.771730491462E+00 5.540783408139E-01 2.056708258214E+01
 8.773926454244E-01 -4.356833890739E+00 2.425605898242E-02 9.694539114626E-01 8.836797042404E-01 4.825048685637E-01 9.032196065870E-02 4.511750531016E+00 -3.598553631380E+00 1.251285474179E-01 5.676143996025E-01 -1.761086397478E+00 -2.410744446351E+00 3.317538042808E-01 -2.252430075426E+00 -4.760414039540E-01 -3.311619153313E+00 -2.881133105198E+00 2.276836150834E+00 -6.124631114783E+00 1.069724128344E+01 -2.045223789195E+00 2.181154058356E-01 -1.087975928430E+00 -8.037429930412E-01 -1.259235622172E+00 -8.984097265588E-01 -9.276033560284E-01 -7.828775158178E-01 1.420463881544E-01 2.221534812561E+00 -2.872562011759E+00 7.899073491500E-01 3.433187545576E+00 1.327070068499E+01
 -5.333195459017E-01 -4.207833011728E-01 3.933512997025E-01 1.207369631082E+00 -1.596469952169E+00 3.936665078920E-01 2.401864802462E+00 -3.940312798445E-01 1.123467551099E+00 3.016427658296E-01 -5.753724343422E-01 -2.142799106855E+00 1.929959865129E+00 -2.686167999222E-01 1.272727496431E-01 -1.341952776073E+00 -2.543967147199E+00 -4.706173147673E+00 8.102392162061E-02 6.591589461598E+00 -1.113725117771E+01 6.828567730377E-01 4.998260882800E-01 8.994224717007E-01 2.329734378190E+00 3.452543771248E-01 2.576994427432E-01 -2.586335973309E-01 2.081095403588E-01 -1.233718607971E+00 -5.014537558791E-01 1.009176538041E+00 1.807023289812E+00 7.434104877755E-01 -3.623540108264E+00 1.351002129105E+01
 7.036879503866E-01 -1.246058477453E+00 3.455437592822E-01 -7.485950313583E-01 -5.069420386552E-01 7.467699431306E-01 -3.469957601710E+00 1.394849042862E+00 -8.325423963917E+00 2.375831853117E+00 8.145245438108E-01 -5.640764862642E-02 2.688109800517E-01 8.250475752898E-01 -5.872669572416E-01 -2.329770167161E+00 -1.404615434399E-01 -1.124745259481E+00 9.468126889827E-02 -5.063699699663E-01 8.502259871198E-02 7.254181972056E-02 -5.946104475050E-02 -3.863381389338E-01 -6.819946899413E-02 3.539313378450E-01 -5.352042924966E-01 -1.829338325422E+00 1.408914505162E-01 -1.382158771736E+00 3.835675584513E-01 1.501042555922E-01 8.207453801181E-01 -1.351268732869E-01 4.759110381518E-01 1.193109557625E+00 2.470871606521E+01
 1.621722213912E-01 1.102767766656E+00 -3.970941968717E-01 9.971431549317E-02 4.936004401614E-01 2.187627295831E-01 2.994614707436E-01 -6.462104145502E-01 1.172759122743E+00 1.959705420020E-01 -6.499882881179E-01 4.264381151327E-02 -1.535959565715E-02 -2.231338969311E+00 4.639619769105E-01 6.359240681312E-01 -4.063030979970E-01 1.450666059656E+00 -3.100738977669E-01 -4.427599056253E-01 -2.218329362915E-01 2.422265441407E-01 1.677916701057E+00 -9.768160551033E-01 9.391841020309E-02 3.528154473153E-02 -1.057279389184E+00 -1.217416690684E-01 -2.243694969195E+00 -1.702568623852E+00 -8.013560448470E-01 8.173284121776E-01 5.910642547671E-01 4.157356104612E-02 1.025960004283E-01 -1.155655861893E+00 1.704571580126E+00 1.730423734956E+01
 -2.033942173853E-01 -7.967094222392E-01 -4.897614808927E-01 8.862046435100E-01 -1.113706205752E+00 6.539349450351E-01 -4.931864358697E+00 4.116335212642E+00 -8.034589158026E+00 3.884275741186E+00 -6.367374263090E-01 2.127231820872E+00 -1.418140209917E+00 2.501411583153E+00 -1.515683191261E+00 -2.486809278279E-01 1.721469064240E+00 6.967006325343E-01 6.208063942439E-01 -1.359232099415E+00 1.076251032783E+00 -4.063115137885E-01 -9.463881368303E-01 1.011626572064E+00 1.093095905322E+00 -6.047698200596E-01 2.073563748264E+00 -1.448003273411E+00 -6.994615544467E-01 -3.622293845499E+00 -6.571581284279E-01 -7.026058474028E-01 -5.194126270453E-01 -4.023373361024E-02 -2.954025727757E-01 -9.159424637236E-01 2.131578390096E+00 -8.074147711330E+00 2.423905664635E+01
 -2.405190195189E+00 1.073086699854E+00 -8.609402540338E-01 5.214872621918E+00 1.587909953435E+00 2.912639499937E+00 3.374003334315E+00 -4.551463218878E+00 -1.164866243663E+00 -2.686366544372E+00 1.506519060411E+00 -2.492254144506E+00 -5.240995997766E+00 -3.124679600954E+00 -1.663337725582E+00 5.570111594003E-01 -7.105614375847E-01 -6.983664016310E-01 2.472185674243E-01 -2.034304692874E+00 -1.102272576693E+00 -5.740958558593E+00 3.921450445031E+00 3.941383341345E+00 4.591911550490E-01 3.610502472586E+00 2.975055282921E+00 -1.489283409258E+00 2.900467520649E-01 6.294007132285E-01 6.314505631182E-02 -2.194005977823E+00 -6.768172684118E-01 -1.533736128705E+00 1.018467871233E+00 -1.100219327537E+00 -1.189242488408E+01 -4.965039754870E+00 2.947651522472E+00 2.542671743763E+01
 -2.754500977432E-01 -9.374268674831E-01 1.908987304323E-01 -1.407986076733E-01 1.654405003044E-01 4.159510481382E-01 4.306474644537E+00 1.706615910390E+00 -1.396468979796E+00 -5.131841403022E-01 -1.934054567581E+00 3.438970613722E+00 -3.148040979344E+00 -3.522687424924E+00 -1.876989094721E+00 2.181981952570E+00 4.722063999842E-01 1.361638318601E+00 -6.315428274821E-01 8.186685626357E-01 -5.881278641314E-01 3.346936591515E+00 -1.060554253610E+00 -2.320109155425E-02 5.054427506652E-03 -1.569792424486E+00 6.410588653061E-01 1.061908727071E+00 8.148419383752E-02 7.498806508383E-01 -1.647448309798E+00 -8.612719700096E-02 -1.319608799314E+00 1.819920208070E+00 4.697900445996E-01 -2.830675626929E-01 -4.692842141421E+00 -1.418849989983E+00 1.184372958854E+00 2.037887021568E+00 1.757479301050E+01
 -1.270011878858E+00 8.419591052052E-01 1.265904321791E-01 2.018107646411E-01 1.230797912851E+00 1.296296111884E+00 8.777901561130E-01 -3.315568841506E+00 -4.159274476827E+00 -8.350815822763E+00 1.356888518772E+00 -5.144397221581E+00 -2.139015882436E+00 -1.454213517989E+00 -2.908330031265E+00 -2.547874608156E-01 -6.662270895171E-01 -1.496963258527E+00 4.529301469056E-01 8.296324875412E-02 -1.520917097129E+00 5.698004013338E-01 1.171758696484E+00 4.538705062233E-01 -5.382582236189E-01 2.226286907674E+00 1.046170052349E+00 4.501236207335E+00 1.819210925983E+00 -5.710418342453E+00 -1.888769660396E+00 3.104259716407E-01 -5.529626374148E-01 9.517133974058E-01 2.121794914303E-02 2.423646216075E+00 2.539254982590E+00 1.768747479449E+00 -3.202204582728E-01 1.073252389852E+00 -3.180006119562E+00 1.773936661513E+01
 2.679026872283E-01 6.612651777064E-01 -9.840837932170E-01 1.662101458939E+00 -5.345706852363E-01 -2.465200061913E-01 -1.990567361975E+00 1.950767728854E+00 4.942411707158E+00 -1.285903634657E+00 -2.134780022508E+00 -9.916362730948E-01 7.746330918019E-01 9.332258990560E-01 -4.390479391530E-01 -2.292208613161E+00 2.977531654290E-01 -6.570275385453E-01 -2.701159694330E-01 -2.769156116951E-01 5.034352499167E-01 -5.054790034726E+00 -2.671168464078E+00 1.084810763280E+00 -4.114946549772E-01 -1.048614092310E+00 -1.656221694531E-01 3.653233090352E-01 4.789677473943E-01 -5.038070714130E-01 -7.225817534954E-01 -9.491870034097E-02 3.298768523926E-01 -1.087573165499E+00 -1.157945865225E+00 -1.751037073626E+00 -5.134264247525E+00 2.446105628007E+00 -1.129649982419E+00 -2.078402323557E+00 -8.103721227109E-02 2.136805051165E-01 2.196061039545E+01
 -2.409350612473E-01 1.995300865349E-01 8.324067060635E-01 -1.032616260528E+00 6.049476604704E-01 1.307952816329E-02 1.937423909760E+00 -4.238987564705E-01 -7.392742333658E+00 -1.839107015205E+00 -2.797698526698E+00 -2.027380598350E+00 -1.245424991501E-01 -3.341503845936E-01 7.397032021250E-02 -5.807536396575E-01 -1.807950169195E+00 -1.324733886950E+00 2.954645122771E-01 4.010041100966E-01 6.383290195352E-01 -3.681302275240E+00 -2.982681146099E+00 -7.616497501834E-01 -2.806470902433E-01 -2.689289667136E+00 2.183780492206E+00 -8.771911061523E-01 1.925368185029E+00 1.082606844828E+00 4.481502360910E-01 2.021370483157E-01 -8.691185748276E-01 -1.855823466721E+00 5.195238117393E-01 6.730216189160E-01 4.606720627167E-01 -2.711859164949E+00 -5.571228906980E-02 2.819007709049E+00 -1.089683108947E+01 1.432122953167E+00 1.066062468221E+00 2.527105624079E+01
 -8.154586304778E-01 1.101560677139E+00 -2.464222355175E-01 -2.481830235126E-01 9.044930300782E-01 1.201068225622E+00 6.640777790724E+00 -5.772996936442E+00 -1.086682815740E+01 -9.076180165717E-01 -1.692972704348E+00 -1.316115000212E-01 -5.288263892415E-01 -4.136132203384E-01 3.363561809508E-01 -3.706884635899E-01 -8.079913281338E-01 -2.506863815499E+00 -3.610795746624E-01 -1.206705555202E-01 -3.035991571721E-01 5.863228053267E-01 5.302516257681E-01 -1.084178345184E+00 -1.250080564197E+00 4.245778827573E+00 -9.546694121885E+00 -1.232812121882E+00 9.546975771259E-01 1.071721631073E+00 2.229113114487E-01 -1.405246297667E+00 -1.208737383942E+00 1.173215481889E+00 1.225828964684E+00 -1.018316179617E+00 -3.378691711809E-01 5.892460568930E-01 -3.166277872774E+00 8.982193362708E-01 7.951290362292E-01 -2.033462557494E+00 -4.055032408407E+00 1.513344093760E+00 2.916808826272E+01
 -3.685184191600E+00 9.830598397873E+00 1.029989793517E+00 -9.007030971747E+00 6.230447005317E+00 2.692325118548E+00 1.097958948503E+00 -8.388005280384E-01 -2.932965696646E+00 -3.429434904826E+00 -4.090487948088E+00 2.299306399436E-01 1.413596420743E+00 -4.844069902120E-01 -1.935054746150E+00 5.043097289783E-01 8.412280614127E-01 3.637085757959E+00 -2.820410245703E+00 5.814952900465E-01 -1.491168520384E+00 3.722960804497E-01 1.072093773281E+00 6.643694284669E-01 -1.530622927205E+00 -1.166586150233E-01 -1.233224113953E+00 -2.616372820923E+00 9.499722714010E-01 6.038337522778E-02 2.663020176936E+00 -8.397637653798E-01 1.901946175084E+00 -1.725608840074E+01 -2.464499615291E+00 -4.550334143909E+00 1.024398659794E+00 7.332630695141E-01 -1.959150032016E+00 1.886115879424E+00 -2.278410138845E+00 1.134306976034E+00 -1.544850732618E-01 4.229507805639E+00 1.126997502841E+00 3.433461387274E+01
 8.028107724590E+00 -1.216908789333E+01 2.900606486543E+00 8.932552194967E+00 -7.940964141108E+00 -2.316146771084E+00 7.033353086671E+00 1.882254659796E+00 3.942105908771E+00 -5.638531043552E+00 -6.614941923503E+00 4.983870537430E+00 -7.412762087254E-01 9.821097702799E-01 1.588678745365E+00 -4.977353573186E-01 5.100985262853E-01 -4.387847872247E+00 2.921300110854E+00 3.377293807152E-01 8.517440622922E-01 -9.590195519559E-02 -4.168928645590E-01 -2.542183532335E-01 -2.600056657056E+00 -5.281054241371E+00 -4.958643613819E+00 -9.066652251906E-01 1.871145219414E+00 -1.274994730091E-01 -1.801179262888E+00 -1.305610279239E+00 4.821364279531E-02 -1.770734824518E+00 5.069364594981E-01 -2.988454554490E-02 1.412132355819E+00 1.465237698422E-01 7.196796167766E-01 5.079326925573E-01 3.330673955726E-01 -3.084916013371E+00 5.704391635099E-01 -1.610458316133E+00 -2.529183556931E-01 -1.358561135601E+01 2.854436296620E+01
 1.300264896877E+00 4.011580563181E-02 3.371476028958E+00 1.311886979203E+00 -5.432577224885E-01 2.597683058502E+00 -3.223451005227E+00 -1.254594915360E+00 -3.024925780333E+00 2.704634827368E+00 4.557269768101E-01 -4.075810149272E+00 1.108752977943E+00 1.607547242810E+00 -2.060569974471E+00 -7.970148424673E-01 -7.757226996842E-03 -4.416618871525E+00 -2.227203323973E+00 -7.144610533876E-01 5.950184399602E-01 2.381188227991E+00 -1.939803223216E-01 2.211999348417E+00 -2.735158066806E+00 -2.728358891793E+00 -6.063531427412E+00 -2.526343956340E-01 -9.856968880569E-01 1.015689961552E+00 1.949803904527E+00 1.446572659120E+00 -9.420354242163E-01 -6.454055836080E-01 1.571198127510E+00 -3.512537667749E-01 1.131540406887E+00 1.020237563351E+00 -1.369089292891E+00 -3.026628301949E+00 -9.661157712388E-01 -5.767702761031E-01 5.318425352301E-01 2.110817422499E+00 2.171852549971E+00 8.040452738325E-01 -1.180103842551E+00 1.213024422500E+01
 3.060329268893E+00 -1.187744540401E+00 5.512595289424E-01 -2.472824182715E-01 -1.236656260320E+00 1.875929290076E+00 -2.792271080139E+00 -2.329460200346E+00 8.882744172643E-01 1.404086622127E+00 3.712642325152E+00 3.062563458520E-02 -4.843609265783E-01 1.094436245696E+00 -2.683264090899E-01 -4.654160946421E-01 1.754689580289E-01 1.413374745572E+00 3.913030107529E-01 -1.648317085546E+00 -8.958727081364E-02 -1.650017532912E-01 2.926136330606E-01 4.302248511795E-01 -4.692583136080E+00 2.045645975854E-01 2.610637139941E+00 1.280047553371E+00 -1.018525746855E+00 -1.931450427825E-01 -7.605573197741E-02 -4.444610144513E-01 -7.041995866602E-01 2.852305055686E-01 -5.574929089863E-01 6.167676765558E-02 -6.498513087679E-02 -1.427856164202E+00 1.145399975301E+00 2.737736457513E-01 -3.209667119414E-01 2.638767570581E-01 -6.304916262013E-01 -8.508052443266E-01 -1.632367136510E+00 -3.417354993236E+00 -3.619572166957E-01 1.844229916950E+00 1.048432594321E+01
 -1.145803929354E+00 8.277621893759E-01 -1.703954833188E-01 -1.570438455958E+00 -6.012072896221E+00 -1.269978658205E-01 -1.440459645133E+00 -3.998106033050E+00 5.014001310230E+00 2.222184424004E+00 -4.789600033768E-01 3.701022298884E+00 -1.158544457741E+00 1.380055202436E+00 5.499805842479E-01 -1.451902969710E+00 2.060435144142E-01 -1.400419935224E+00 1.265585567467E+00 -6.546542460020E-01 1.174496139494E-01 6.935027308251E-02 1.045717273569E-01 -1.227173323127E+00 1.624506076408E+00 -4.705918154350E-01 -1.523020301978E+00 5.439326425536E-02 -1.016139278585E+00 6.128191129507E-01 -2.025114114467E-01 -1.126541407695E+00 -1.334407045224E+00 -6.979433386633E-01 -6.476848628547E-01 9.563923009582E-01 -1.846779748234E-01 8.768732013874E-02 3.133297138340E-01 -2.294378712644E-01 -5.568962203023E-01 -9.997030367594E-01 1.079350545107E-01 -4.248092730470E-01 -4.090594499505E-01 -1.052138286604E+00 -7.623143037546E-01 1.222193423496E+00 4.122445033604E+00 1.834545074004E+01
 6.185881459489E-01 -2.876257565006E+00 -1.513372927899E-01 9.467060334873E-01 -6.674560481519E-01 -2.205008415026E+00 3.110952442819E-01 5.808291689595E+00 -3.191619620225E+00 2.361503628027E+00 -1.137453588683E+00 -1.851032573111E+00 9.340414708862E-01 -9.200528108145E-01 1.862747799267E+00 1.062551451140E+00 1.324670677308E+00 -1.145989561597E+00 -1.315001212315E+00 1.577752508473E+00 -5.113188110981E-01 -7.013189621663E-01 -1.666953325930E+00 -7.474885954161E-01 2.679049499870E+00 -3.543612504233E+00 -1.803034158355E+00 -3.485934753453E-01 8.713980199969E-01 -1.110372974031E+00 -5.963999153682E-01 1.445649065907E+00 1.080973060135E+00 1.149622504539E+00 1.549984565629E+00 9.976310891496E-01 -2.408694838460E-01 8.976426744380E-01 8.143099173726E-02 -4.224527665050E-01 3.511363449031E-02 7.848046714899E-01 7.653426460436E-01 5.422937954638E-01 -2.546442134967E+00 -2.975337033520E-01 2.077718539484E+00 3.782818027159E-01 -4.610002388915E+00 -6.312706687157E+00 1.931468993772E+01
 -1.098620860856E+00 8.608796515880E-02 -2.867634320467E-01 -2.146876987534E-02 -1.395694315723E+00 -4.173684873014E-01 -2.987354154584E+00 -5.794479338668E+00 3.449545146436E-01 1.591244126536E-01 -6.559368968809E-01 5.374828978258E-01 -2.095371581921E+00 1.054126716398E+00 -1.113786852478E+00 -3.866218594926E-01 1.090434389169E+00 5.180623033331E-01 1.257641997779E+00 -1.432794015934E+00 1.269134602677E+00 -4.449660002508E-02 3.580671263698E-01 2.592781121312E-01 -8.462463581682E+00 1.182365967335E+00 -1.717912556049E+00 9.394584231717E-01 -1.184078146143E-01 -4.678743995140E-01 7.758045376830E-01 -6.207024949013E-01 -1.318462754153E+00 1.633804067362E-01 4.287938666681E-01 -8.524194887501E-01 -4.537784384480E-01 -3.878559082321E-01 -4.842506783332E-01 4.557975942220E-01 -8.620912290041E-01 1.617302178809E+00 -4.064692166652E+00 -7.928650756216E-01 -6.689290304918E-03 -4.882981481322E-01 8.212804453738E-01 -7.502932471868E-01 -2.057351861435E-01 -2.794624342773E-01 -2.499417304753E+00 1.893062747994E+01
 -2.490942389642E-01 8.395383010272E-01 -5.773326238719E-01 -7.132631415291E-01 -6.350259188688E-01 2.825623632267E-01 -4.032478449868E+00 -6.506009410181E+00 -1.349442997950E+00 5.516780228728E-01 9.572138420892E-01 2.671537407129E-01 -1.760154894040E+00 2.867304215229E+00 -1.035191700824E+00 -1.944315058657E+00 4.210040083530E-01 -1.625983723309E+00 1.249432095152E+00 -5.701974586464E-01 1.263177566627E+00 -7.701036918492E-01 -1.559908716364E+00 1.028415935428E+00 1.801140504172E+00 -1.894847914654E-02 1.784427932641E+00 1.864584076375E-02 -8.394067268828E-01 -1.128493165484E+00 1.130487454206E+00 -5.708107824065E-01 -2.777764547854E-01 -6.311340156645E-01 -1.457015251472E+00 8.947318196036E-01 2.460383359053E-01 -9.582107972502E+00 3.963367247118E+00 -3.599646923075E-01 -2.737590549088E-01 8.597492208823E-02 -9.414305245912E-01 -3.196651094238E+00 -2.190620618559E-01 -3.950021553855E-01 5.407414389274E-01 -7.008878442466E-01 1.129316010051E+00 -1.180820840911E+00 -6.655830957748E-01 5.859348849085E+00 2.585228939491E+01
 -1.134852469873E+00 9.844066722294E-01 -7.225625578307E-01 -1.000871406726E+00 1.292893801593E+00 4.151315181509E-01 -3.896788875885E-01 -3.936382042043E+00 -2.039039676704E+00 -2.015246461799E+00 -1.295901329954E+00 -4.265902299786E-01 -8.280776376933E-01 -2.083023529931E-02 -1.073991161333E+00 -4.696819875402E-01 -8.415618443731E-01 1.790036490813E+00 1.081153080993E+00 -1.216512473893E+00 5.664777645731E-01 -4.824014079411E-01 1.043529190047E+00 -5.507254923844E-02 -8.799016699905E-01 1.568430702275E+00 -3.903350205363E+00 9.233937837096E-01 4.871182326065E-01 3.212700025156E-01 7.033322991064E-02 5.039775451722E-01 2.553166569287E-01 -4.229875141988E-01 -5.457202517619E-01 -7.470420987017E-01 5.284547547675E-01 5.031196072024E+00 -3.938631529492E+00 -5.508655011875E-01 4.291084984664E-01 1.042253439268E+00 2.434258245937E+00 1.302855137488E+00 5.849601431269E-01 1.892652066940E-01 -8.137693349200E-01 -6.824853331004E-01 -2.189151601172E+00 -1.366998161955E+00 -6.448926725715E+00 4.321879715457E+00 -3.151613258041E-01 1.685615388147E+01