#BIOSYM hessian 1
@Type: Hessian Update
@Units
 distance: 	A
 energy: 	Kcal/Mol
#header
@natom 14

#label
L1      L2      L3      L4      L5      L6      L7      L8      L9      L10     L11     L12     L13     L14

#element
Li Li Li Li Li Li Li Li Li Li Li Li Li Li

#matrix
42
 2.963274600146E+01
 -9.703547613007E+00 2.360675592625E+01
 1.010360371461E+01 -1.063689805103E+01 2.062967239620E+01
 -1.748843797145E+00 1.879118538628E+00 7.069377531377E-01 2.468932607123E+01
 3.724344130484E-01 -1.243230104458E+01 1.801890562826E-01 9.508079332920E+00 2.604020411942E+01
 9.242965099662E-01 6.876363239662E-01 1.841348662383E+00 1.293627335004E+01 8.699616535315E+00 1.986362652445E+01
 1.052031537444E+00 -2.189451682667E+00 1.248002229040E+00 -7.413017910283E+00 3.472175270983E-01 1.368722111927E+00 3.525223744202E+01
 -2.746513489495E+00 1.313603525330E+00 -1.521002148389E+00 1.578187908444E+00 -2.023558641035E+00 -2.865377739769E-01 -2.730092040116E+01 4.910424813447E+01
 1.151337771097E+00 -3.060343063333E-01 -9.364530431212E-01 -6.761737134249E-02 5.362504416363E-01 -2.872261178978E-01 -2.853757549773E+01 3.109318762431E+01 4.113810135769E+01
 -1.249997630128E+01 4.756238664667E-01 1.357583349946E+00 1.769443702805E+00 1.971434196575E+00 7.590707486196E-01 -3.829670413433E+00 4.041702900170E+00 2.725069660365E+00 3.034691547147E+01
 6.311690797220E-01 -6.110890330781E-01 -8.951134712935E-01 8.925751240345E-02 1.639274466130E+00 7.549552118760E-01 -3.358597587031E+00 -8.774686295379E+00 7.632456841007E+00 1.664559598257E+01 3.625987688484E+01
 -8.899484061350E-01 3.609556330354E-01 1.508158342732E+00 -9.820159676874E-01 -1.160684393545E+00 -4.785498343966E-01 4.261066454043E+00 -4.850804840657E+00 -4.933701116977E+00 -1.794481704227E+01 -2.024920070454E+01 3.072983098953E+01
 -4.714716908986E-01 -1.022300764058E+00 3.718001471363E-01 1.686682643419E+00 2.675677916680E-01 -2.350606413265E-01 -3.660416264877E+00 1.854390437326E+00 -2.541495976595E-01 -2.454726099012E+00 -1.552583123919E+00 1.021466819589E+00 4.308712626662E+01
 -1.534832906989E+00 -1.403232024123E-01 8.317843627633E-01 -3.036988997960E+00 -1.173703461577E-01 -5.976713322165E-01 4.483121400995E+00 6.171194904736E-01 1.202160333457E+00 -7.599672206989E-01 -3.771388768834E-01 -5.073281617542E-01 -5.659948130691E-01 1.152476618185E+01
 -5.268094518112E-01 1.093840826258E+00 -6.000341985023E+00 -1.603512762067E+00 9.048970788330E-01 -3.427993256061E+00 1.817628280332E+00 2.719391956959E+00 3.727876309649E-01 3.531985316349E-01 -1.211821609423E+00 -1.952292244331E+00 -2.185408530571E+00 -5.827887385547E-01 2.085561218834E+01
 8.676732637130E-01 3.859073729710E-01 -2.012129304769E+00 -2.039101977890E+00 2.170265766141E+00 -2.439343723371E+00 -2.095546313406E+00 -6.833819274752E-01 3.260700356112E+00 -1.180759196139E+00 -1.169881953045E+00 6.574734704808E-01 -3.678687574819E+00 3.752542986930E+00 1.299554959735E+00 1.782243055129E+01
 -5.962962060370E-02 -1.595145484320E+00 1.387262378259E+00 3.426034957379E-01 -1.817113228586E+00 -7.976246323827E-01 -8.492736470799E-01 -8.135261230485E-01 -2.049595688063E+00 -8.431332868294E-01 -1.906093900875E+00 2.328795571692E-01 3.887492775113E+00 -4.638898670596E+00 -7.519690414897E-01 -1.903484640548E+00 3.722154284887E+01
 -1.070553629599E+00 1.189875112469E+00 -1.715718233100E+00 -3.816459223137E-01 4.563069573809E-01 -3.269585130187E+00 -8.188426562614E-01 1.529844694341E+00 -3.685285401351E+00 -1.723393856071E+00 -1.744872736484E+00 6.861100352403E-01 1.736540872972E+00 -7.152464343358E-01 2.283093747750E+00 1.331110321049E-01 1.205548141403E+00 1.811720930355E+01
 -1.214101843629E+00 5.678348716995E-01 -8.930802932866E-01 1.307049657400E-01 3.746505111743E-01 -7.092815928440E-01 -1.143135094075E+01 1.070646521841E+01 1.263759385835E+01 -3.601886355157E+00 -7.018280462889E-01 1.940234896709E+00 -2.649608408777E-01 2.371385460573E-01 -7.640992970780E-01 -4.766575438012E+00 6.304157691878E-01 3.268587226673E-01 6.879269278967E+01
 2.373134214763E+00 -3.044938032507E-01 1.277258865752E+00 -3.404793467941E+00 -1.118100864683E+00 -1.210178439880E+00 1.865417662493E+00 -4.631539939357E-01 -2.723048488517E+00 -1.117442406249E-01 -2.993337002488E+00 1.376110721711E+00 6.437972856459E-01 -1.039354712184E+00 -2.224456135842E-01 -3.195114010570E+00 -3.284051326179E+00 1.627599389301E+00 -2.446320062619E+00 1.263739156652E+01
 -4.153331561728E-01 -4.227079288093E-01 -1.930351611004E+00 -1.956465787142E+00 4.006030464971E-02 -9.834215276378E-01 3.025205043879E-01 -1.961954092996E+00 -5.204988231004E+00 -3.413810924688E+00 -1.527838294978E+00 -1.656221504963E+00 -1.718024710051E-01 -2.795155497650E-01 2.927394976880E+00 -1.581887963538E-01 2.088351004479E-01 1.361091434464E+00 -3.018293026896E+00 8.695295627976E-01 4.181898523420E+01
 -2.314342073006E+00 -7.163703419298E-01 -4.554276283154E-01 -6.883236865948E-01 -3.848848570495E+00 -1.034579830056E+00 4.033271313863E-02 3.268199690242E+00 -4.842008025324E-01 -1.343105158906E+00 -3.020473136678E-01 2.305483043124E+00 -2.643304478930E+00 -1.446458109945E+00 4.016222955948E-02 2.630182306511E-01 -6.829725626806E-01 1.863350251992E+00 -3.915662556655E+00 3.598000000934E+00 1.044176447442E+00 1.612573840789E+01
 3.263026020113E-01 -1.356246389976E+00 2.637199480405E+00 2.608068735502E+00 -2.270415923807E+00 1.881669431778E-01 -2.502518860891E+00 -6.988452811371E-01 1.846069327983E-01 2.958792645239E+00 1.217941097140E+00 -3.808104333324E+00 -2.627888389314E+00 -1.578706474903E+00 -3.664568180069E-01 -5.597108974470E-01 -1.506539151959E+00 -3.052721916021E-01 7.600402811416E+00 -6.700090309424E+00 1.573579452373E+00 -3.245487602401E+00 4.116606550482E+01
 -6.559186166245E-01 2.293202959473E+00 -5.098220082464E+00 -3.309585435240E-01 -9.516118584859E-01 -8.724228094197E-01 -2.082700096282E+00 2.343626333423E+00 2.093629956581E+00 -8.390112169772E-01 -1.078228222215E+00 -4.147301685351E+00 8.190448553121E-01 -6.081899256077E-01 1.847189859395E+00 1.059395215110E+00 7.039775428311E-01 1.756832789301E+00 2.862519389075E-01 1.283042024041E+00 1.603503113909E+00 2.092525009401E+00 -1.469540630767E+00 1.730922455777E+01
 -1.202110577082E+00 8.247290740326E-01 -1.738499166262E+00 -2.016483527728E+00 -7.169778105623E-01 -5.491976111391E-01 3.092478077829E+00 1.262570585563E+00 -1.076070197295E-01 -9.294137827444E-01 -1.321341928631E+00 1.006889306864E-01 7.125865211841E-02 -2.387717437407E+00 -5.858701359470E-01 -8.828307619747E-01 -1.483940199338E+00 -1.622277711350E+00 -4.783545272614E-01 7.150255937099E-01 -3.960988596433E-01 -4.600502606017E-01 -1.165016184374E+00 -8.245052878475E-01 2.057939857620E+01
 -4.100601456214E-01 -7.462065642533E-01 1.681445253636E-01 1.480464031076E+00 1.461675466690E+00 2.971440140731E-01 -1.658843787333E+00 3.094055207864E-02 1.792275503748E+00 1.145202330177E+00 1.620687306533E+00 -1.191481978512E+00 -1.227823513675E+00 -1.160873207994E+00 -9.828597673869E-01 7.452836334529E-01 3.211887390343E-01 4.159200213461E-01 -7.221990159407E-01 -6.204420812134E-01 -7.542282335018E-01 -1.346871145302E+00 1.599302954670E+00 1.132392537649E+00 -4.864543388323E+00 2.256619419679E+01
 3.013624032430E-02 -1.713504954068E+00 9.018822660001E-01 2.080066372571E+00 5.271063214226E-02 -3.158186170900E-01 -1.748030614668E+00 4.321452204830E-01 -4.735806451151E-01 2.868102278394E-01 9.723183215547E-02 -4.721499406647E-01 1.773705570209E-01 -7.877028516194E-01 -2.898144987964E+00 6.746780668116E-04 9.511551071982E-01 3.603282756299E-01 -1.022004545933E+00 -6.328461813916E-02 -2.309982634079E-01 2.780076364979E+00 5.945513452381E-01 -3.076648307192E+00 -7.513101057267E+00 7.594967119107E+00 1.753153156811E+01
 5.907428335969E-01 -6.391714213692E-01 -1.522181178524E-01 5.083734264838E-01 8.959311326544E-01 -5.079585378382E-01 3.183947196928E+00 -5.123601567132E+00 -4.030332690277E+00 1.413381845716E+00 1.507345880589E+00 -3.252618158084E-02 -2.222845121888E+00 1.397926823779E+00 -2.871119354535E-01 -1.846644811301E+00 7.925419461223E-01 -5.120366777632E-01 3.970597687653E+00 -1.946317837506E+00 -1.134424388284E+00 -1.062026210038E+00 -4.771228686167E-01 -1.722129227577E-01 -2.699191938611E+00 7.759629490090E-01 8.650014131640E-02 3.370260075992E+01
 2.215419518787E-01 2.524195761165E-01 -2.805153254120E-01 -7.468593781584E-01 1.382449378261E-02 -1.279733149432E-01 3.136753098795E+00 -3.602764937691E+00 -4.379520707786E+00 1.235120798953E+00 1.751476054497E-01 3.542576901126E-01 1.424126025383E+00 -1.558342286194E+00 2.955661640742E-01 1.459767593603E+00 -8.541245103345E-01 -1.701132988707E+00 4.141332304829E+00 3.696588973571E-01 -1.008447202991E+00 -2.592476773289E-01 -2.875470096853E+00 -1.691968210045E+00 -2.865981381020E+00 -1.206659596733E+01 4.050477984224E+00 1.640518923150E+01 3.511492830967E+01
 -3.489819908442E-01 8.105476785969E-01 -4.863058128006E-01 -3.124547447448E-01 -1.587806919506E-01 -1.038215887776E-01 -2.411351663852E+00 4.818029966746E+00 4.224554813806E+00 6.023170721079E-01 -5.054667162227E-01 -1.170418024143E-01 -7.148656112426E-01 5.349572793269E-01 -3.506153661249E+00 2.151359928462E+00 -1.616837368746E+00 -3.500036343246E+00 -4.872533773148E+00 -7.279884740904E-01 -1.773902378008E-02 1.270533055281E-01 1.920630219643E+00 2.843149280472E-01 7.513210788156E-01 -1.204516086182E+00 -2.719621590608E-01 -1.970530631899E+01 -1.910358122343E+01 3.090140823382E+01
 -4.247085388413E-01 7.566336309550E-01 -5.471312199382E-01 -1.263277751074E+00 8.211156720737E-01 7.083288565987E-01 -2.006982995482E+00 1.860258750259E+00 2.510373673879E+00 -1.802131085456E-01 3.619441453072E-01 -2.977790783088E-01 8.790115613468E-01 7.340248033296E-01 -1.163302142258E+00 -2.729700581326E+00 -2.238800140092E+00 -1.857297768018E+00 -1.974568976979E+00 3.583813266883E-01 2.706989361015E+00 -3.658082439235E-01 1.160193479084E+00 -1.369022853555E+00 1.378040838894E-01 -1.365281196635E+00 1.504050019400E-01 -1.010210444990E+01 2.360303251422E+00 -1.917157807542E+00 3.383470967466E+01
 -5.701407048930E-01 -2.431615500077E-01 7.091206316935E-01 -1.374401150137E+00 -1.912638090574E-02 -1.275336967671E-01 3.123460061923E+00 -1.469532676368E+00 -2.540941449973E+00 2.116366738625E+00 -8.711800285147E-01 5.672213027236E-01 -1.083549170657E+00 -5.465499798479E-02 -1.789095407227E+00 -7.319299221354E-01 8.150031154783E-01 1.113600513506E+00 5.629068605324E-01 -8.525619973929E-01 -2.720671470032E+00 1.193362425959E+00 -1.980288649024E+00 -5.107585349326E-01 3.929391652104E-01 -1.234358182151E+00 -6.112533973987E-01 -1.434525049898E-01 -1.203507129944E+00 6.182186030388E-01 -1.495665721217E+01 3.203152314078E+01
 5.681910964607E-01 -5.555099167657E-01 -2.392711683204E-01 -3.683864618885E-01 -3.609960474021E-02 -2.203794883870E+00 -2.672067526683E+00 1.622633378461E+00 2.299661087493E+00 4.817102608008E-01 1.684680110671E+00 -1.122151947026E+00 -6.701712842383E-01 1.172190378109E+00 1.047796586313E+00 -1.942522080881E+00 -2.524112418333E+00 -2.077439379335E+00 -3.915698702335E-02 2.006148724198E-01 -2.913496534039E+00 -1.781137569670E+00 1.281118536840E+00 8.522898173908E-01 -1.061403354992E+00 1.766433211685E+00 -1.078816725669E+00 2.567087169668E+00 -1.399723906419E+00 -6.282458229321E-01 1.570812252210E+01 -1.312015274321E+01 2.080136063756E+01
 9.000584324297E-01 -2.125722830227E+00 1.675992304491E+00 5.894736064563E+00 9.858490080355E-01 2.594551193669E-01 -2.680082555172E+00 -2.389485626695E+00 -1.494156386193E+00 1.232260882672E-01 6.566257942749E-01 1.082825871723E+00 -2.468588775041E+00 2.352353065542E-01 1.478598152893E+00 -1.011935717690E+00 -1.974914926061E-01 -1.442998274016E+00 -1.823988402543E+00 4.172670849544E+00 1.985153468989E+00 -2.246362267650E+00 -1.331949964922E+00 -1.244082620638E+00 -1.044276995846E+01 -1.245893965918E+00 -2.835439239250E+00 2.246739920404E-01 2.331427403705E+00 -1.080944901441E+00 -1.562947586546E+00 -5.140218430590E-01 1.018687765464E+00 3.084987275653E+01
 -3.411731297559E-02 -7.589260450120E-01 1.242655278656E+00 3.136801117889E+00 5.096006603238E-01 3.592412545006E-01 -1.336496801167E+00 -8.717224492583E-01 -8.091899347538E-01 -1.129885213756E+00 8.050448492641E-01 1.478559780209E-01 -2.649169256018E-02 -1.313220907896E-01 1.467155429058E+00 -1.922509738250E+00 -1.617120033122E+00 -2.199958839213E+00 8.107085698494E-01 1.922172149803E+00 2.096497424232E+00 1.335915154794E+00 -1.703520880401E+00 -8.157778775810E-01 -9.638407048226E-01 8.109481801038E-01 8.401169040726E-01 -8.222782552153E-01 5.044177513172E-01 2.088952085738E-01 -2.221033355834E+00 -1.447564073438E+01 -1.554846404814E+00 1.175670264413E+01 2.619782159217E+01
 -5.946366455350E-01 -1.202331239851E+00 8.658018326873E-02 1.378471711549E+00 1.513601496124E+00 6.150254999791E-01 -8.483032427947E-01 -2.712186778417E-01 4.131613069015E-01 5.389678402744E-01 -6.661498438035E-01 -3.931774031457E-02 -8.246019602403E-01 -1.437144355762E+00 -1.381142855770E+00 -9.131635486088E-01 -1.061152430415E+00 -3.529273068361E+00 -4.021669505630E-01 5.878500407998E-02 -4.534212634474E+00 -1.883587272463E+00 5.161362982885E-01 -5.412804105009E+00 3.452335861049E-01 2.086639688231E+00 1.557563915700E+00 -5.510122117656E-01 6.404573547744E-01 -7.883259004574E-01 -3.870115242004E-01 2.345100814848E+00 -1.972063492594E-01 1.145721667799E+01 8.133666724348E+00 1.836512529405E+01
 -1.494596628152E+01 9.799577354362E+00 -8.449131775077E+00 -1.364269890286E+01 -1.106238509649E+01 -9.065912230768E+00 -1.424010609514E+01 1.824615122851E+01 1.469891150826E+01 -9.865680220193E+00 -1.358259131227E+01 1.031304421868E+01 -1.013531853534E+01 -3.368658860483E-01 6.562443726971E+00 -1.489565259985E+00 2.655976150908E+00 2.808417472406E+00 -1.981331647477E+01 3.061567632193E-01 -1.379280743757E+01 3.045851558176E-01 -5.890359246917E+00 8.735823355885E-01 2.848538609802E+00 -2.278618644777E+00 -8.600737773392E-01 -4.238251556916E+00 -4.305850623056E+00 3.977219981076E+00 3.241084713976E+00 -3.881433134999E+00 1.650849278546E+00 -2.786770700568E+00 -2.991450187803E-01 -1.757771682337E+00 9.003613099162E+01
 1.174171850440E+01 -9.725399153428E+00 7.057666317512E+00 -1.154502957224E+01 -9.847622388680E+00 -6.663812668395E+00 3.202835798349E+01 -4.024696955752E+01 -3.671895285359E+01 -2.497546833900E+01 -2.553140150870E+01 2.544638283755E+01 -9.025775141687E-01 -6.815220242505E-01 -1.030042124571E+00 1.631111156935E+00 -9.097248736281E+00 4.333654104996E+00 -1.284787480191E+01 2.604147896699E+00 3.264961319193E+00 -4.300171320616E-01 -1.117927390541E+01 -6.625156271189E+00 1.150185384526E+00 -2.453904558387E+00 -1.503855351190E+00 3.595096391536E+00 4.486740220210E+00 -3.043366037502E+00 -3.294482788055E+00 3.109082198880E+00 -7.291916696539E-01 1.552789768310E+00 -4.975672725401E-01 -9.647384634880E-01 -6.207526850660E-01 1.087797919858E+02
 -9.855264418972E+00 7.972105146749E+00 -8.983374051603E+00 -9.102592562579E+00 -8.425896326647E+00 -1.041869062479E+01 2.485384947537E+01 -3.442953229005E+01 -3.167209014956E+01 1.388534051666E+01 1.741936108382E+01 -1.471863052921E+01 7.216305337574E+00 2.382395979057E+00 -6.331637834309E+00 -1.692910712199E-01 7.272003078392E+00 -3.527032680322E+00 -3.102008616830E+01 1.119957393495E+00 -1.037007988831E+01 -2.229237844571E+00 -8.420994822266E+00 -4.372909580106E+00 3.774772753112E+00 -1.561989063519E+00 -3.704601868438E+00 4.322031230788E+00 4.374492495215E+00 -5.547413467474E+00 -1.977263162298E+00 4.527370299978E+00 -3.199860987357E+00 -2.020803208824E+00 -1.532946902655E+00 6.965654013697E-01 -6.033979419905E-01 1.585271483833E+01 1.089527512472E+02
 1.778269034759E+00 1.707139944143E+00 -1.216301992857E+00 -5.867519320670E+00 -2.086333873840E+00 -2.414812529177E+00 4.736146521187E+00 -4.574023706954E+00 -2.008347462599E+00 2.232463527155E+00 2.096932869987E+00 -1.535197029052E+00 -1.772375974182E+01 -7.711644955270E-01 -4.435471625941E+00 2.768225586886E+00 -5.030454729226E-02 2.560768143249E+00 -2.360922908643E+01 -2.928294077738E+00 1.841838506592E+01 -1.694689571191E+00 3.146293741631E+00 2.387612803887E+00 -7.618272665368E+00 1.097322185981E+01 8.386609650399E+00 -2.142325365369E+01 -2.453762260051E+01 2.375432544582E+01 -1.748229780126E+01 1.586655039079E+01 -1.345980282767E+01 -1.296912137016E+01 -8.284329393304E+00 -5.557634777406E+00 -5.272665443931E+00 2.916943643310E+00 2.925637065244E+00 1.021457039845E+02
 -6.074589722397E-01 2.740513242623E+00 -2.157751900560E+00 -5.145081061587E-01 -1.897038791372E-02 -1.175428424347E+00 -5.788224967456E+00 7.898848253029E+00 7.086345752057E+00 -2.769641157863E+00 -6.530455634327E-01 3.281940692001E+00 9.318346662839E-01 -6.633787819699E-01 4.566276650607E-01 2.113457943760E-02 -1.122787353808E+01 -5.205865744401E+00 -8.913633536399E+00 -1.577844196282E-01 6.218996093788E-01 2.882843183882E+00 -1.213391249373E+01 5.994990133406E+00 1.142390923144E+01 -1.012855683457E+01 -9.933754972206E+00 -1.621804990036E+01 -1.875633192556E+01 1.744925764220E+01 1.566339963367E+01 -1.355159612847E+01 1.219196617575E+01 -1.388673505113E+01 -1.069418567748E+01 -9.691652369534E+00 1.125014015141E+01 -9.718853196389E+00 -6.549040909894E+00 6.524990245490E+00 7.706512745158E+01
 1.579880983239E+00 4.288227163127E-01 4.223941368521E-01 -1.996099064009E+00 -1.650559626996E+00 4.132370331245E-02 5.267082243168E+00 -1.237809350813E+00 -3.348571448409E+00 2.930964831759E+00 2.900065194274E-01 -3.286741021856E+00 -6.286468493321E+00 -6.079009830987E-01 -3.836168164938E+00 -9.276311148679E-01 -3.160369326269E+00 -3.260295350039E+00 2.754976321844E+01 -2.865952199385E+00 -1.986946554083E+01 -2.384655704417E+00 5.474379587202E+00 -2.766678452852E+00 9.426543855459E+00 -9.558841492101E+00 -7.828584510838E+00 2.010952144079E+01 1.997761119134E+01 -2.044323239348E+01 -1.226825385942E+01 1.153977453375E+01 -1.134082433095E+01 -8.839504730551E+00 -7.583364242446E+00 -5.851738947625E+00 -6.355373676453E+00 1.323736021992E+00 -6.802994987066E+00 -2.780576992982E+01 -1.236953334891E+01 8.817157730873E+01

