#BIOSYM hessian 1
@Type: Hessian Update
@Units
 distance: 	A
 energy: 	Kcal/Mol
#header
@natom 19

#label
L1      L2      L3      L4      L5      L6      L7      L8      L9      L10     L11     L12     L13     L14     L15     L16     L17     L18     L19

#element
Li Li Li Li Li Li Li Li Li Li Li Li Li Li Li Li Li Li Li

#matrix
57
 2.182094915721E+03
 5.688498245537E+00 2.140693887735E+03
 1.840183433341E+01 -5.499723908870E+01 2.184997144369E+03
 8.110692181874E+01 1.664874794499E+01 1.249095350132E+01 1.911544865620E+03
 3.221455948191E+01 1.968095765750E+01 4.419513046761E+00 -1.361943235870E+01 2.203458499530E+03
 6.178614715091E+01 -2.404711514452E+01 -4.003566275156E+01 -1.852757732911E+02 -1.508456539295E+01 2.092766368683E+03
 -2.058868481951E+01 1.207048206608E+01 6.573915797383E+00 5.490640238060E+01 1.099745708105E+00 3.446277717832E+01 2.226183791763E+03
 -8.262602824129E+01 1.020079115471E+02 5.989144501757E+01 1.179371180233E+02 1.990626735483E+01 1.016467607860E+02 -4.615342619332E+01 2.016952441261E+03
 2.211058039078E+00 -5.434522353268E+01 -3.685546659115E+01 -3.402512036325E+01 2.675343599927E+01 -4.214902265706E+01 1.283498622155E+01 4.894007038782E+01 2.191381275431E+03
 -2.684718680981E+00 5.250997026154E+00 3.803481637182E+00 3.908159100200E+01 5.096544422425E+00 2.963866173793E+01 -5.612061316223E+00 -1.541614641049E+01 5.131549975102E+00 2.226809121404E+03
 -2.783772149141E+01 -7.020978707984E+00 -1.350013909437E+00 -2.347905901736E+01 9.147781479549E+00 -2.074803002087E+01 -4.637986122670E+00 -2.870373269625E+01 -1.197283464186E+01 1.805572215346E+01 2.194576506592E+03
 -4.745948246090E+01 1.320071730512E+01 6.251869112098E+01 -3.663734594224E+01 -7.112924999308E+00 3.398004635261E+01 -7.283968026888E-01 -2.167554250303E+01 3.669047421005E+01 3.149182404035E+01 -4.816256495927E+01 2.020106237876E+03
 4.325505705843E+01 9.436616603512E+01 2.997890024878E+01 -2.268730188200E+02 -3.142446889155E+01 -1.340891599780E+02 1.547716581918E+01 -4.070349699862E+01 1.346825839110E+01 3.053745157006E+01 -4.241688192013E+01 -4.700518455870E+00 1.959874303219E+03
 1.739185356824E+01 1.570796999190E+02 1.014988537780E+02 -1.938787734058E+02 -3.394720124354E+01 -5.166505205733E+01 3.867305748477E+00 -1.133497468739E+02 6.562076166506E+01 1.822165368113E+01 -2.570879207499E+01 -8.065841662495E+01 -2.652094737158E+02 1.890307928293E+03
 -4.848255323986E+00 2.143553909056E+01 2.036233235406E+01 -1.184125786254E+02 -2.180360998956E+01 -6.986624357375E+01 6.813685180832E+00 -3.187940456183E+00 1.021627829230E+01 4.371986581823E+01 -6.597915588652E+01 -1.346354842991E+02 -1.291295137622E+02 -1.243562877288E+02 2.081144664013E+03
 -6.086200107203E+01 -4.844644835235E+01 1.205383528826E+00 1.187033444372E+02 1.969771635846E+01 8.453683999190E+01 -1.548282509677E+01 -1.129962291269E+01 1.300660889736E+00 -7.166341542910E-01 -1.362919369024E+01 -8.686693191470E+01 1.379810543250E+02 1.114958100020E+02 6.897741081181E-01 2.130357393930E+03
 2.884172973159E+01 -2.025393524518E+02 -1.419084128824E+02 1.502743276904E+02 1.067814922367E+01 -8.091451889579E+00 1.287060423751E+01 2.102646573280E+02 -8.324126093340E+01 -6.640567619116E+00 3.176939713145E+01 1.119153186911E+02 2.640936741864E+02 4.057240423914E+02 1.118938617337E+02 -9.535883725297E+01 1.726254391429E+03
 -5.709928186913E+01 2.393750897101E+01 2.465089436235E+01 4.506377536397E+01 1.708702747913E+01 4.110762830599E+01 -2.025705874296E+01 -9.366368638616E+01 1.120835043170E+01 5.034668490080E+00 -3.809523262216E+01 -6.276517550335E+01 -9.861620564551E+00 -3.722233419583E+01 -4.013852316781E+01 -3.651975053557E+01 7.855868052720E+01 2.180309204462E+03
 6.151531502470E+01 -4.245442921850E+01 -5.202461619441E+01 -1.425861070621E+02 9.705442666188E+00 -1.289801605586E+02 3.198147137487E+01 1.050977857824E+02 -6.326190385071E+01 1.255711941538E+01 -4.697436500453E+00 8.861953828501E+01 -8.323731046408E+01 8.035868598389E+00 -3.754569502378E-01 7.702140129537E+01 -6.408343545788E+01 5.238631965750E+01 2.107523841451E+03
 1.552784223493E+01 -3.017233223355E+01 -9.781013625010E+00 -1.415208866703E+01 -4.521000639766E-01 -8.460746330574E+00 1.202520273117E+01 6.066585044733E+01 -1.104518627615E+01 6.966721116084E-01 1.336028738161E+01 -8.110010090872E+00 3.817928347844E+01 4.345229919368E+01 1.197453148214E+01 -1.321718689977E+01 -6.351558322541E+01 2.409841515879E+01 -1.191144006668E+01 2.219807436044E+03
 7.615535294903E+00 2.448219545041E+01 3.333904566705E+01 -4.456824318483E+01 -2.978789590222E+01 -2.712794886638E+00 2.268130566452E+00 8.517078963336E+00 3.415093601840E+01 1.468362536853E+01 -1.051291797913E+01 -9.314645580082E+01 -3.823988931092E+01 -7.448152595268E+01 -7.025772291532E+01 -1.106603383433E+01 7.149530877794E+01 -9.272635367001E+00 3.536768273234E+01 -3.771195586466E+00 2.179104644456E+03
 6.737716647470E+01 -3.884592370093E+01 -5.057089429596E+01 -1.251354552231E+02 1.242825699007E-01 -1.117684247189E+02 3.267852836854E+01 1.137589822113E+02 -5.056764415190E+01 5.194070206095E+00 1.733313175394E+01 1.032037927358E+02 -5.956311294831E+01 1.988450329273E+01 2.186156549714E+01 8.095271590565E+01 -7.586460503264E+01 6.685407127076E+01 -1.272086214345E+02 -1.833797033451E+01 3.427421354252E+01 2.114680005488E+03
 -3.823153492928E+01 5.065211070047E+01 4.642610607882E+01 1.320658242340E+02 -4.867957219607E+01 1.046441128816E+02 -3.362166915722E+01 -8.630553204651E+01 8.584165576286E+01 9.018815639864E-01 -4.304337487793E+00 -1.119899417040E+02 4.686868801286E+01 -3.094666918101E+01 -4.931615472745E+01 -6.994422667900E+01 5.774349053598E+01 -4.779200662158E+01 1.419672630701E+02 1.420553076229E+01 -7.044585304922E+01 1.332409180154E+02 2.041159108553E+03
 4.512137116062E+01 4.930804797162E+01 2.373617647445E+01 1.150293485052E+02 1.989573940272E+00 9.929636582757E+01 -9.660897348391E-01 6.022061574962E-01 3.338473745408E+01 -6.361990401240E+01 1.264293534990E+02 1.464210429492E+02 1.227862784037E+02 4.810422744401E+01 2.200488084252E+02 3.378115960586E+01 -2.545858263527E+01 7.787092416810E+01 4.492826854883E+01 -1.699136412014E+01 5.516062690499E+01 -1.798196422652E+01 1.437857306846E+01 1.862887400379E+03
 6.456889875159E+01 6.143593259843E+01 7.506736277740E+01 -1.167186036289E+02 -6.552039069024E+01 -4.862919022157E-01 2.865891445343E+01 8.330621743529E+01 7.419313077493E+01 7.972226421270E+00 5.431070653317E+01 -1.238043655709E+02 -3.499691983195E+01 -1.415771614447E+02 -4.677017700759E+01 1.842477302699E+01 1.272402202290E+02 5.075015927162E+01 4.969506934295E+01 -3.644505901394E+01 -1.059362967362E+02 1.824230722274E+01 -8.897516762895E+01 -9.873177557029E+01 1.911257688327E+03
 1.493205128425E+01 -1.315952777794E+00 1.344946453919E+01 -1.701532015574E+02 -2.430095738564E+01 -9.627771952278E+01 1.991829464004E+01 5.107452307715E+01 -1.362833037112E+00 4.648874782487E+01 -5.933401300330E+01 -1.314894551649E+02 -1.308388712645E+02 -1.144820652189E+02 -1.642871297417E+02 1.010925956994E+01 8.630509289908E+01 -1.877365963613E+01 -3.487220797886E+01 -3.704712462378E+00 -7.546800360297E+01 -9.633894096787E+00 -1.437790810616E+01 2.130060340850E+02 -7.464199176077E+01 2.058856891510E+03
 1.069900282776E+01 -4.347422621164E+00 -3.712433702363E+01 -2.368609824144E+01 -2.641443061095E+01 -5.666278277192E+01 -2.783184306413E+00 1.534113376991E+00 -2.740746081367E+00 1.726804801917E+01 -2.512476326228E+01 3.264756001201E+01 -7.041846684672E+01 -9.286567000999E+00 -5.519838570078E+01 3.853308870214E+01 -2.207577372977E+01 -1.638033083250E+00 -4.553498246751E+01 1.574922435798E+01 -1.620322855079E+00 -2.659707676882E+01 -5.683571891249E-01 8.444501792898E+01 6.016769117526E+01 -4.198196901130E+01 2.174927807737E+03
 2.907095691595E+01 -2.719103826903E+00 -1.135093032389E+01 8.090920991912E+01 5.505549895092E+00 4.845080238270E+01 1.456173802682E+00 2.536878612941E+01 5.389458197509E-01 -3.827641399238E+01 7.434383075323E+01 1.178416390938E+02 9.784769494316E+01 8.406685891781E+01 1.457874914348E+02 1.723639760388E+01 -8.585870211173E+01 5.599769320851E+01 1.544181984613E+00 -1.580600444965E+01 5.136084843862E+01 -3.116136906557E+01 3.463188152919E+01 -2.216298689645E+02 -1.644335251729E+01 1.406291092834E+02 4.459305194881E+01 2.098964667318E+03
 9.128315886989E+00 -1.240330970992E+02 -1.120625744813E+02 -1.657579278553E+01 1.806513683122E+01 -1.008460549093E+02 8.477914769220E+00 9.334469659721E+01 -8.875989221746E+01 1.951815011404E+01 -4.611568905958E+01 9.738533597573E+01 1.402626156290E+01 1.726657594280E+02 -1.721635208764E+01 1.431859979192E+00 -2.435532243074E+02 1.569563820738E+01 -1.299786352552E+02 -7.426762287070E+00 5.969694274498E+01 -9.627668425804E+01 1.160182372635E+02 1.513535285384E+02 2.147210682055E+02 -2.524219813934E+01 -8.038455652004E+01 4.021209687382E+01 1.976433278098E+03
 -1.659923316416E+01 -8.786949545463E+01 -6.440329654210E+01 6.110353247408E+01 2.159850822506E+01 -1.107363641859E+01 -2.792237439611E+00 4.493618211462E+01 -4.966191266329E+01 3.464678652793E+00 -2.055241487681E+01 4.067172940000E+01 8.307840106008E+01 1.594444540011E+02 1.767957910389E+01 -4.450302356909E+01 -1.900575520448E+02 -4.366312128006E-01 -3.685392938890E+01 -1.057215968021E+01 4.134316008551E+01 -2.339433721648E+01 4.057926036940E+01 6.345091929121E+01 1.324211662073E+02 1.903198396223E+01 -2.537942685999E+01 5.374489841734E+00 -1.422312252059E+02 2.142522514153E+03
 3.977588761379E+00 4.518569253477E+01 1.676035779834E+01 1.562046905258E+01 1.065387584318E+01 1.944390556548E+01 -7.939263711409E+00 -6.014448969128E+01 8.258016371045E+00 -2.058220341731E+01 2.031133238521E+01 7.201479318940E+01 -2.681836346129E+01 -4.560236443529E+01 5.676022958848E+01 4.183796321683E+01 7.668815116789E+01 7.726542754109E-01 -5.183910695385E-01 1.809800755335E+01 3.170996272675E+01 -8.860483353356E+00 2.843451263641E+01 -9.412319637725E+01 2.592917134077E+01 6.749804018881E+01 1.040957587575E+01 -5.152917013873E+01 4.167358544487E+01 3.186626754794E+01 2.184629808965E+03
 7.193672588065E+01 -6.857247220031E+01 -5.399307616691E+01 -1.750900702932E+01 -3.934101466832E+01 -4.591162334774E+01 2.586222205969E+01 1.643226464790E+02 -1.252032802990E+01 1.229631226154E+00 4.779244413337E+01 5.122206845227E+01 6.881108914571E+01 1.200610873457E+02 3.690541586536E+01 9.560529546015E+00 -2.032943434130E+02 8.649170867347E+01 -5.348477954989E+01 -4.535675744500E+01 -4.966676180047E+00 -7.259847896955E+01 1.850292633969E+01 -6.842612326480E+01 -7.887237072911E+01 6.780472535908E+00 -7.305601934117E+00 -6.053540235128E+01 -5.240100075122E+01 -3.325513295518E+01 3.637788497648E+01 2.082244605272E+03
 -1.522529380368E+01 4.982688196433E+01 2.729139122347E+01 3.650210771566E+01 1.332937591584E+01 3.882449404191E+01 -1.278791129437E+01 -7.972658700032E+01 1.632320461679E+01 -1.614798372117E+01 1.014283486451E+01 2.879849126810E+01 -1.501112179504E+01 -5.036547832249E+01 3.828271344098E+01 1.622240291727E+01 9.127295534795E+01 -1.807382614067E+01 3.057234662835E+01 2.052752188139E+01 1.881389598607E+01 2.320537434265E+01 -4.942262532102E+00 -6.451981798391E+01 1.795767470418E+01 5.303597317735E+01 1.341555897632E+01 -2.977128762809E+01 5.585801092638E+01 3.181759724473E+01 -4.502543878758E+01 5.380719299456E+01 2.198061168870E+03
 -4.169417125734E+01 -3.159449742291E+01 -4.219108054248E+01 4.410485071757E+01 3.455433696314E+01 -1.448716144518E+01 -1.460723813729E+01 -5.288423666223E+01 -4.146620896113E+01 5.030189137786E+00 -4.521499732048E+01 4.962005182374E+01 -5.612119190203E+00 6.007018352378E+01 -7.467130742012E+00 -8.838563561897E+00 -5.036154428940E+01 -3.950366905198E+01 -3.441908098226E+01 2.399218307126E+01 5.104293696797E+01 -8.072752803967E+00 4.830967433640E+01 9.566583308883E+01 1.881460811873E+02 1.349823880822E+01 -4.308407992847E+01 3.670641456425E+01 -1.246774490898E+02 -7.244708174764E+01 -4.959851450355E+00 5.730526737332E+01 -6.398096471533E+00 2.128136763153E+03
 -4.303072650133E+01 4.184819137949E+01 1.364986460777E+01 -5.404789068121E+00 2.061661059994E+01 -2.980197772458E+00 -1.645543659970E+01 -1.091977278473E+02 -7.631842908646E-01 6.403019850239E+00 -4.330773479683E+01 -2.949932899467E+00 -8.349537292518E+01 -8.076814019354E+01 -4.309159399836E+01 1.934559817115E+01 1.235124590771E+02 -5.667935372053E+01 1.746299576452E+00 3.823639382401E+01 1.335316646936E+01 2.442419077548E+01 7.514270911020E+00 7.930317127818E+01 9.751756265571E+01 -1.663878032955E+01 -2.628715951753E+01 5.585568593783E+01 -1.256789885514E+01 5.888679827084E+00 -2.563216305362E+01 1.062158869647E+02 -3.329988357660E+01 -6.774119948478E+01 2.152086503790E+03
 -3.895511879807E+01 -3.937603884228E+01 -2.004837693131E+01 1.482265181309E+02 3.593635889579E+01 8.282755829787E+01 -1.799328463816E+01 -2.843318969578E+01 -1.715297487218E+01 -2.750678846335E+01 2.028377947638E+01 5.697712137848E+01 1.412112700420E+02 1.413978259492E+02 1.019709310602E+02 -5.696500791855E+01 -1.190451772716E+02 -7.010699435013E+00 3.372232695573E+01 -3.576184039240E+00 5.461455536020E+01 2.604050561862E+01 7.587715110151E+00 -9.014302723751E+01 9.721645103541E+01 1.135322561406E+02 3.561408967065E+01 -7.056017537555E+01 -2.495266145103E+01 -5.320306839851E+01 -2.014637832501E+01 4.622969823870E+00 -2.005303335201E+01 -3.649719794533E+01 9.947557788926E+00 2.138122337018E+03
 2.334925336512E+01 -4.347931369486E+01 -3.811541735948E+01 5.253249458744E+01 2.946806775600E+00 1.086093925210E+01 6.070118967057E+00 6.101468555370E+01 -2.034319942840E+01 -2.030354709226E+01 4.447908354082E+01 9.190692426822E+01 8.905663803852E+01 1.166264982431E+02 9.399900567425E+01 3.326169767512E+00 -1.435910427542E+02 4.971020661025E+01 -2.928811490322E+01 -2.093641170121E+01 4.240852118889E+01 -4.399174841504E+01 4.513472951279E+01 -1.198134636161E+02 2.058154829047E+01 8.503873710659E+01 1.942793574541E+01 -9.002001695132E+01 -3.297166213682E+01 -3.357137466624E+01 -1.565199847955E+01 -7.150791811728E+01 9.091754186170E-01 7.578968446035E+00 5.234242104884E+01 -5.403529978037E+01 2.168204527340E+03
 -8.802534162636E+01 -2.389422344711E+01 -1.567656191519E+01 2.405374375881E+02 6.503670853715E+01 1.463546343489E+02 -3.701688647082E+01 -1.160300981621E+02 -1.470350903824E+01 -4.467384159624E+01 2.348328076524E+01 9.118616329385E+01 1.877104577011E+02 1.690311247806E+02 1.499835868916E+02 -7.552418611103E+01 -9.969527473935E+01 -3.926160774973E+01 6.520453063152E+01 1.384409492641E+01 9.374468248793E+01 6.265751252203E+01 1.125540313484E+01 -1.523861787482E+02 1.785358879704E+02 1.908804248651E+02 6.253774169089E+01 -1.046830653269E+02 8.401109191863E-01 -5.814139487125E+01 -5.728342787518E+01 6.810815733992E+01 -6.450787565675E+01 -7.438265525776E+01 -2.581016058363E+01 -1.611620764834E+02 -6.021483421336E+01 1.964707832064E+03
 3.125025377481E+01 6.502617652648E+01 4.674602953231E+01 -7.158261465873E+00 -1.386471144535E+01 3.823421550618E+01 3.162437767630E+00 -1.644797284177E+01 3.946167212919E+01 -2.679027369329E+01 5.999160714470E+01 3.471156332653E+01 -6.640688990718E+00 -7.777362222115E+01 7.133746417841E+01 4.392946934408E+01 1.013888575287E+02 3.382352973963E+01 2.822506048462E+01 -2.818962294312E+00 -5.274650653320E+00 -8.250928050591E-01 -8.463286736905E+00 -1.807121425699E+02 -1.182565705507E+02 6.511458454392E+01 5.141326494362E+01 -8.744754504684E+01 1.393074011913E+02 8.401106048885E+01 -5.412034326529E+01 -1.015218481745E+01 -4.141577777703E+01 8.349089976685E+01 3.140699692889E+01 -1.899260666393E-01 -2.586894096381E+01 -1.065215046848E+01 2.120377770489E+03
 -4.796632737054E+01 3.850035582413E+01 1.630321288472E+01 7.903516974394E+01 3.437704349423E+01 5.727762463465E+01 -2.201840873381E+01 -1.170775776086E+02 1.676122036798E+00 -1.932153433864E+01 -2.985100268130E+00 4.279406589283E+01 7.999875020834E+00 -1.703380995545E+01 5.057089551088E+01 1.044719203666E+00 7.347222179616E+01 -3.933654458163E+01 3.175372730518E+01 2.993107815765E+01 4.447492639870E+01 3.532080550345E+01 1.023307256171E+01 -5.286328587991E+01 9.509204838355E+01 7.848020577275E+01 1.686767428600E+01 -2.794460700549E+01 2.740064028976E+01 5.300175761877E+00 -5.524203992408E+01 9.012785123706E+01 -5.699622659850E+01 -4.991564294427E+01 -5.997860034707E+01 -5.122055788363E+01 2.874564597896E+00 -1.231633386775E+02 -1.718169995214E+01 2.150175965918E+03
 1.790090307209E+01 -8.566643702099E+00 1.171744035525E+01 -9.024723640864E+01 -2.634813477839E+01 -4.606331001054E+01 1.445120927078E+01 6.097712674261E+01 9.408527487229E+00 2.769094219281E+01 -2.356750605022E+01 -1.054421925087E+02 -4.556927371627E+01 -4.882011310997E+01 -9.585509418000E+01 -1.403616596757E+01 1.952755431287E+01 1.432265977840E+00 -4.295143241232E-01 -1.485253022106E+01 -6.353381405456E+01 4.162883267330E+00 -3.970932770963E+01 1.146033787055E+02 -9.695126735735E+01 -1.157248819611E+02 -1.782534927757E+01 7.760388321025E+01 3.600734694053E+00 1.435775111761E+01 5.777959129898E+01 -3.006845039374E+01 4.670958283503E+01 3.871429993483E+01 2.097155529009E+01 6.983507477127E+01 4.324448491385E+01 1.285164651995E+02 3.096388466751E+01 7.388889134653E+01 2.153584587874E+03
 -6.374076108774E+01 4.338660275902E+00 3.433828415878E+01 7.724726330544E+01 5.016537819830E+01 8.796672474696E+01 -1.325725915909E+01 -7.516253040162E+01 -2.952223077238E+00 -1.613188392339E+01 -2.136103721410E+00 -3.963426541238E+01 8.200198107920E+01 2.329434830796E+01 4.270204327907E+01 -6.243345258525E+01 4.164092995663E+01 -4.398658644213E+01 6.192705653475E+01 3.306502438871E+00 2.108615826823E+01 6.338294737362E+01 -2.200133595071E+00 -4.677680503072E+01 3.257580250280E+01 5.630471744809E+01 6.963377687663E+01 -2.039062775840E+01 6.418305338659E+01 3.968826666782E+00 -1.933578296017E+01 7.744326026729E+01 -3.544930067124E+01 -1.184809405908E+01 -2.168218742406E+01 -6.344780654485E+01 4.053794020766E+00 -1.235949808012E+02 -1.616198478453E+01 -6.469266271748E+01 3.924439699338E+01 2.132031480238E+03
 -5.959727062756E+01 7.427995286516E+01 5.251554246835E+01 5.841159018514E+01 1.840804574394E+01 6.981919143005E+01 -2.931012392250E+01 -1.565352256282E+02 3.267818038339E+01 -1.082673005094E+01 -2.133832119074E+01 -2.827768219870E+01 -3.641291095447E+01 -9.938571381021E+01 -6.415073362040E+00 -6.137180364235E+00 1.735603136717E+02 -6.688562072542E+01 7.033979472561E+01 4.044301234814E+01 1.570441363083E+00 7.897535080720E+01 -4.893783558657E+01 -2.112849689605E+00 4.338105901471E+01 2.766379628954E+01 1.625804634916E+01 2.030859563200E+01 8.323304986692E+01 4.358179285625E+01 -4.486795629213E+01 1.259685155109E+02 -5.953421490705E+01 -2.760806861743E+01 -7.659225887854E+01 -1.495548871752E+01 4.992290293536E+01 -7.214592883349E+01 -2.073100555341E+01 -8.249333631193E+01 3.845448580112E+01 -6.418244875284E+01 2.126695787662E+03
 -7.991798039733E+01 1.827737006919E+01 5.487241239621E+01 4.294381835023E+01 5.949693408427E+01 8.171388973465E+01 -1.248418407037E+01 -9.865948381990E+01 -4.775094887604E-01 -3.001358455853E+00 -2.851694259133E+01 -1.011062870875E+02 4.788253247461E+01 -2.630975422576E+01 -7.993564192769E+00 -7.741744779594E+01 1.090740102680E+02 -7.312053755691E+01 7.757111058215E+01 8.743283329325E+00 1.590378293670E+00 8.641595923824E+01 -1.496504854939E+01 2.242935051777E+01 1.965716563873E+01 7.967597505353E+00 6.738906782873E+01 2.964836670192E+01 8.117134764244E+01 1.738187177725E+01 -2.864431897791E+00 1.159030385515E+02 -3.136380666268E+01 -1.676910662335E+01 -4.723020142472E+01 -3.919114495777E+01 4.105810493622E+01 -1.004092204053E+02 3.322312121984E+00 -6.680038186454E+01 1.364377068787E+01 -1.249084090800E+02 -8.679123060154E+01 2.077067049273E+03
 1.850778923627E+01 9.024363729556E+00 1.945105830321E+01 -4.821316151819E+01 -2.280378307092E+01 -1.054315819725E+01 8.920717874033E+00 3.205767456132E+01 1.875218235130E+01 7.611677701680E+00 4.900887133574E+00 -4.920254018832E+01 -2.062194181567E+01 -4.394535511815E+01 -3.409008810400E+01 3.543507363309E+00 3.351545525230E+01 1.123904283426E+01 7.602058681150E+00 -1.109220374938E+01 -3.915377805364E+01 4.796470718887E+00 -2.818731246489E+01 6.601093652769E+00 -9.200230225469E+01 -4.384520157103E+01 1.142809152375E+01 1.507861806631E+01 4.635337535268E+01 3.225321907534E+01 1.789756451530E+01 -2.300254678501E+01 1.401414046072E+01 5.061423137538E+01 2.713553629391E+01 3.803845241628E+01 1.564813028385E+01 7.481471489867E+01 -1.913679588151E+01 3.912141091865E+01 -4.249010206619E+01 1.862843240904E+01 1.791828882793E+01 1.072239386787E+01 2.210281696271E+03
 7.650036112287E+00 -2.270593010365E+01 -1.826400903490E+00 2.508790496066E+01 2.991157714573E+01 3.114380600762E+01 1.107962097645E+01 3.755651332023E+01 -2.176873133304E+01 -2.387752149143E+01 4.572322082412E+01 5.051218406878E+01 8.801238325080E+01 6.887707096238E+01 1.014009934498E+02 -7.795010286715E+00 -6.152481083913E+01 3.525784029505E+01 -7.926533717257E+00 -2.264571649425E+01 3.998375432956E+01 -2.619569305617E+01 6.236881878853E+01 -1.424561844188E+02 -1.589545200625E+01 8.578289773815E+01 6.298437768661E+01 -9.279164275388E+01 2.999069204129E+01 -1.751210205157E+00 -2.828031160480E+01 -2.894244797269E+01 -1.599051442282E+01 2.647558574258E+01 4.209608948922E+01 -5.704438955595E+01 -6.020684298431E+01 -8.475049618382E+01 -5.524866070802E+01 -2.053398971595E+01 4.817816579003E+01 -5.197292772151E+01 1.781259569948E+01 -3.111178659762E+01 9.173187352626E+00 2.148084966474E+03
 -5.383237455575E+01 5.230670102311E+01 5.399359556115E+01 4.936735535069E+01 5.209034047014E+01 7.900095380076E+01 -1.428024269929E+01 -1.130539156243E+02 6.884689526306E+00 -2.206354092305E+01 4.584823004516E+00 -1.789955316818E+01 2.282652186803E+01 -5.275383103253E+01 5.315814597902E+01 -2.251709909806E+01 1.329749872510E+02 -4.406651372692E+01 6.217640572537E+01 1.822589839134E+01 2.611534191599E+01 5.477193947033E+01 7.851679836010E+00 -7.461314388530E+01 2.110111849858E+01 6.594345121301E+01 6.063861159813E+01 -2.914797051143E+01 9.799114552705E+01 3.924401433247E+01 -5.095027907582E+01 1.049057491531E+02 -5.889796884160E+01 -9.442258466476E+00 -4.869306906307E+01 -4.828010451361E+01 1.182701840639E+01 -1.278748843749E+02 -4.895105176244E+01 -8.914704459880E+01 6.010070730949E+01 -1.097985752942E+02 -9.411260909744E+01 -1.247143505803E+02 1.950477051940E+01 -5.017563321410E+01 2.110852450172E+03
 6.256380669291E+01 -3.616287337887E+01 -1.857419416568E+01 -2.569049299114E+01 -2.521412791711E+01 -1.573363562320E+01 2.347331375727E+01 1.249678258486E+02 -2.347534832089E+00 -1.233088880474E+01 6.058089466127E+01 4.870045291610E+01 6.132146743774E+01 6.615966684153E+01 6.475428016276E+01 1.899367239537E+01 -1.147657686622E+02 7.919033949933E+01 -3.479403259367E+01 -4.017639927203E+01 -2.130128596106E+00 -5.831118087002E+01 2.960864638763E+01 -1.305341801954E+02 -1.050120281176E+02 3.437627152175E+01 3.331618212006E+01 -8.544423528584E+01 1.835079031304E+01 7.196271261303E+00 3.856217376457E+00 -1.187035416061E+02 2.304240196784E+01 7.900117865116E+01 9.719276053405E+01 -4.911867548835E+00 -6.711484298686E+01 3.917082066835E+01 -5.997274200573E+01 5.905532079801E+01 -8.441222131605E+00 3.567947142037E+01 8.689334891683E+01 7.051356251411E+01 -2.508234296444E+01 -5.984590681738E+01 4.450963602660E+01 2.122800332502E+03
 -7.777336773163E+01 -3.592011781266E+01 -1.040133187820E+01 2.328902773896E+02 -6.525461148722E+01 1.074332393889E+02 -5.451422146145E+01 -6.185335129674E+01 7.351373187527E+01 3.053625236715E+01 -6.922578283839E+01 -1.895084045924E+02 1.202097408583E+02 1.155709011172E+02 -1.395792942629E+02 -1.719153233011E+02 -1.342256629828E+02 -9.057090383246E+01 1.725187864186E+02 1.311557073659E+01 -9.728671519959E+01 1.860327152031E+02 -2.982109370636E+02 2.400720916848E+02 1.718334204339E+01 -9.204664571648E+01 -7.908040706291E+01 1.446929845196E+02 -4.339760542669E+01 -7.316309650729E+01 1.254992030056E+02 -1.321188335567E+01 6.675657425920E+01 -2.863719631957E+01 3.985221656172E+00 -3.296390627146E+00 7.146877133866E+01 2.663760560017E+01 1.475069907503E+02 6.464668991019E+01 -1.008175910031E+02 4.191720174028E+01 -9.074032731467E+00 1.878596130575E+01 -2.135669402121E+01 1.619217869717E+02 1.192913515962E+02 8.283524392676E+01 1.560399332762E+03
 2.401372052963E+01 1.520880154091E+01 6.781641339770E-01 -1.805154906414E+02 7.863122108819E+01 -9.226027830818E+01 3.275781315558E+01 -4.617729148183E-01 -8.306065252575E+01 -1.619598377974E+01 9.760987834173E+00 1.394625508953E+02 -1.180492972656E+02 -9.075952166856E+01 7.917592429649E+01 1.210652366283E+02 1.226587031481E+02 2.900160188572E+01 -1.469549331079E+02 7.965304353933E+00 9.368662460997E+01 -1.356155007477E+02 2.579050326369E+02 -8.752608035251E+01 9.531858541095E+01 5.187100099798E+01 4.279636916965E+01 -6.110033512784E+01 -3.004086336051E+01 2.265286205548E+01 -9.649212924107E+01 7.476179086603E+01 -5.632966529834E+01 -4.780789558540E+01 -5.931900276042E+01 -7.924811430013E+00 -2.727446207199E+01 -5.216582705770E+01 -5.754520984812E+01 -8.281528777464E+01 8.922103298485E+01 -5.555807661993E+01 -2.804050506239E+01 -5.417403074144E+01 4.030344550608E+01 -1.005371141757E+02 -1.124955366369E+02 2.473367975783E+00 5.114899332545E+02 1.801007803734E+03
 8.347545491695E+01 2.832743182450E+01 -7.967304003451E+01 -1.174965239741E+01 -9.406111176533E+01 -1.167713738510E+02 -1.560276332072E+01 6.638897648385E+00 1.951779911282E+01 8.713409945878E+00 -6.384154538868E+00 1.776886346401E+02 -1.658503878331E+02 -3.504497824521E+01 -3.293574878636E+01 1.402723115913E+02 -5.898553277593E+01 4.643211635805E+01 -9.317507920647E+01 4.193391541230E+01 8.789652355338E+00 -8.869875243809E+01 -2.526004311385E+01 6.745733524796E+01 1.027592231558E+02 -1.724164074586E+01 -1.771454320214E+02 1.833848260479E+01 -1.638307509409E+02 -3.283157699944E+01 -2.169608454205E+01 -7.707907075757E+01 1.473777013036E+01 -6.386191316554E+01 -3.055062910751E+01 6.762915959761E+01 -1.013974644595E+01 1.203403312210E+02 4.274419039715E+01 3.824744893743E+01 1.076694224712E+01 2.045834091457E+02 4.428371437916E+01 2.554494471599E+02 1.642380906825E+01 1.326726367205E+02 1.843749997439E+02 3.242894316906E+00 -1.393653766792E+02 1.108082542678E+02 1.682075115605E+03
 -4.364570167817E+00 -9.772279581297E+01 -8.024972907712E+01 -4.314240846736E+01 1.618606190551E+01 -9.329273267866E+01 1.009262818628E+01 7.365578559541E+01 -7.002867205539E+01 3.118734155040E+01 -5.998191053111E+01 1.494951896807E+01 -1.213450632743E+01 1.103753948620E+02 -6.632427563878E+01 -1.543708433108E+01 -1.647277912707E+02 -6.488471295944E+00 -9.292797292153E+01 -6.038603396434E+00 2.441925226686E+01 -5.915539554643E+01 7.244963329830E+01 1.963197890221E+02 1.523903813774E+02 -7.407983418941E+01 -7.181555952070E+01 8.237298673311E+01 -2.114833350850E+02 -1.122034721954E+02 5.840241078263E+01 -2.565457974561E+01 5.918893014450E+01 -1.018857089895E+02 -2.248268653395E+01 6.490584208449E+00 5.060158327300E+00 3.594838587430E+01 1.394690235110E+02 3.630785378335E+01 -3.095957844540E+01 4.925905575098E+01 6.331341006890E+01 4.122808064244E+01 2.609883036331E+01 5.000680629783E+01 8.436008880079E+01 3.892818768472E+01 -8.740673696220E+01 6.387448485977E+00 -9.787920387560E+01 2.051118044212E+03
 1.245605048381E+02 -2.752548006609E+01 3.385764337399E+01 -1.400022720610E+02 -5.994942935506E+01 -2.392853150108E+01 6.301594179570E+01 2.629097912225E+02 3.347184156565E+01 -3.471538926010E+00 1.145897432326E+02 -7.612540489684E+01 8.894743260797E+01 1.059456405368E+01 4.339890119222E+01 1.457312068411E+00 -8.517728952649E+01 1.400711837437E+02 -2.995107897182E+00 -9.668707010783E+01 -8.521929196417E+01 -6.116259290852E+01 -1.154796702546E+01 -2.169619427466E+02 -4.055256362779E+02 -3.246667816463E+01 1.059953160677E+02 -1.114807400811E+02 1.785432717799E+02 9.571416027379E+01 5.141998815937E+01 -2.244211601643E+02 6.438037971584E+01 2.497479507318E+02 2.139756589930E+02 6.065627157972E+01 -7.455764451726E+01 1.758663250128E+02 -1.500988089052E+02 1.621805347647E+02 -1.012815888836E+02 4.294563597357E+01 1.640288600690E+02 6.895782783354E+01 -1.091819777960E+02 -1.106317930921E+02 6.789094704480E+01 -2.435082587964E+02 1.329354377443E+02 6.412157622317E+01 1.928595098261E+02 1.479534528089E+02 1.564397556607E+03
 -8.707174322962E+01 -6.824691856376E+01 2.571691733923E+01 -9.999004710377E+01 1.122193638142E+02 -6.806357572649E+00 2.182309670036E+01 2.447873764375E+00 -8.370170733691E+01 2.356538793582E+01 -7.171442498661E+01 -1.500892262851E+02 3.580106605201E+01 1.603756595912E+01 -6.034748154803E+01 -9.634674429759E+01 4.592527545465E+01 -7.112764010007E+01 -1.861631644158E+01 -1.916954675398E+01 1.458338183132E+01 1.866202739322E+01 1.222301289562E+02 1.593985471000E+02 6.925291787240E+01 -8.117814039662E+01 8.493405630818E+01 9.397293779659E+01 -2.866421305105E+01 -3.871290872061E+01 4.241093548396E+01 1.195149717888E+02 1.463678744379E+01 -5.740839376789E+01 -5.116922818201E+01 -2.366741836721E+01 5.463572151652E+01 -5.701172452289E+01 8.037605346508E+01 -3.342646710476E+01 -2.933096936131E+01 -1.506881713077E+02 -3.336307457808E+01 -2.231751138268E+02 1.282691365307E+01 -5.441569429937E+01 -1.262033347626E+02 8.032916942335E+01 1.370417834297E+02 -1.954049371656E+02 4.138199459319E+02 -7.734167267486E+01 5.391477182856E+01 1.747536312074E+03