#BIOSYM hessian 1
@Type: Hessian Update
@Units
 distance: 	A
 energy: 	Kcal/Mol
#header
@natom 2

#label
M1      M2

#element
Mn Mn

#matrix
6
 1.454135488426E+00
 4.312642435950E+00 1.279033826517E+01
 -4.442646878203E+00 -1.317590252585E+01 1.357308960651E+01
 -1.454135488426E+00 -4.312642435950E+00 4.442646878203E+00 1.454135488426E+00
 -4.312642435950E+00 -1.279033826517E+01 1.317590252585E+01 4.312642435950E+00 1.279033826517E+01
 4.442646878203E+00 1.317590252585E+01 -1.357308960651E+01 -4.442646878203E+00 -1.317590252585E+01 1.357308960651E+01

