#BIOSYM hessian 1
@Type: Hessian Update
@Units
 distance: 	A
 energy: 	Kcal/Mol
#header
@natom 3

#label
L1      L2      L3

#element
Li Li Li

#matrix
9
 1.753508610720E+03
 -6.948017472801E+01 2.233801185146E+03
 -1.428893066472E+02 -1.829639967200E+01 2.200441317468E+03
 3.467316347373E+02 5.209478228752E+01 1.036262775595E+02 1.996556729184E+03
 -4.554501747276E+02 -6.735018940767E+01 -1.353157108582E+02 3.218410313659E+02 1.817230592335E+03
 -2.121091728170E+02 -3.199327328511E+01 -6.344590547613E+01 1.492322612761E+02 -1.966764990972E+02 2.149659441928E+03
 1.406058752634E+02 1.738539244049E+01 3.926302908767E+01 -1.024422432005E+02 1.336091433617E+02 6.287691154090E+01 2.202682488658E+03
 5.249303494553E+02 7.439512498162E+01 1.536121105294E+02 -3.739358136545E+02 4.909657177938E+02 2.286697723825E+02 -1.509945358008E+02 1.675485277946E+03
 3.549984794646E+02 5.028967295831E+01 1.038507087300E+02 -2.528585388346E+02 3.319922099547E+02 1.546325842686E+02 -1.021399406300E+02 -3.822818829124E+02 1.982362827722E+03

