#BIOSYM hessian 1
@Type: Hessian Update
@Units
 distance: 	A
 energy: 	Kcal/Mol
#header
@natom 19

#label
L1      L2      L3      L4      L5      L6      L7      L8      L9      L10     L11     L12     L13     L14     L15     L16     L17     L18     L19

#element
Li Li Li Li Li Li Li Li Li Li Li Li Li Li Li Li Li Li Li

#matrix
57
 5.861519450642E+01
 -5.245397363471E+00 4.624962560084E+01
 1.277862573819E+01 -6.398387792460E+00 2.797451487594E+01
 -4.791109040691E+00 1.165236565507E+01 5.737813481323E+00 2.090968965052E+01
 5.263135981248E+00 -1.132700755188E+01 -7.153305380466E+00 -1.233188777975E+01 2.098544740045E+01
 8.783607021036E-01 -1.531347017667E+00 5.590534652954E-01 -8.105153239917E-01 6.158153371541E+00 1.318454171313E+01
 -2.182646136549E-01 3.193679674277E+00 -1.420729750363E+00 -3.578211132315E+00 1.864778509561E-01 2.022194395792E+00 1.256939982608E+01
 3.859346913669E+00 -6.023291108650E+00 8.195397394181E+00 1.002284841105E+00 -2.082956111492E+00 -3.049043857166E+00 -1.359584108471E+00 1.866919548608E+01
 -6.536570917433E+00 7.264148198570E+00 -1.539070939305E+01 2.207237139133E+00 -3.386411894779E-01 -5.555451183827E+00 -6.935959767917E+00 -8.295009774761E+00 2.724122283760E+01
 -2.504747592991E+01 -7.691541130126E+00 -7.395288554643E+00 5.172902928237E-01 6.496540625452E-01 -9.917983081938E-01 -4.739649177941E+00 -3.207409237664E+00 5.158112614660E+00 3.550072308453E+01
 -2.565068737306E+00 -1.306250433773E+00 -7.203792342241E-01 -1.687670290536E+00 -2.862336076059E+00 -1.283256247561E+00 -2.491353514891E+00 -2.688737260978E+00 2.038895381126E+00 3.144654711293E+00 1.410412834317E+01
 -6.004591893901E+00 -2.972596530600E+00 1.788519549207E-01 -2.459704731299E+00 -1.445202533182E+00 -1.669651335258E+00 2.763093747973E+00 2.936483276396E+00 -2.968629076304E+00 4.138210075316E+00 -1.428411601697E+00 8.504192807935E+00
 1.088915268702E+00 -1.483964266988E+00 5.002924234992E+00 -8.010260495696E-01 -1.822082774890E-01 -7.600092039229E-01 -2.586319550891E-01 2.684619442913E-01 -6.024784998616E-02 -5.181859491449E+00 6.164500083369E+00 -2.881484199691E+00 2.543483626320E+01
 -2.899184440409E-01 -1.062943745433E+01 -2.333054474240E+00 -9.539864424796E-01 1.614512902693E+00 7.123400635450E-01 -1.986704281654E-01 -1.833098762865E+00 1.743820886051E+00 6.366963053162E+00 -4.955847010589E+00 2.078696165178E+00 -5.867012652576E+00 2.701848677574E+01
 3.709916840322E+00 1.255236340428E+00 1.358034429943E+00 -2.320501368097E-01 1.843368656546E+00 7.271994282866E-01 1.043790287023E+00 1.784808513081E-01 -1.384061170985E+00 -1.255904881260E+00 8.138780483322E-01 -1.348389108345E+00 -2.129128923714E-01 2.721351734040E+00 2.390756587678E+01
 -8.274692549486E+00 7.867226458679E+00 -1.582272827072E+01 3.476566119784E-01 3.715778226465E-01 -6.569546229192E-01 -8.395027180208E-01 -5.801245340027E-01 3.205014048633E+00 1.225037939796E+00 2.103942450202E+00 -1.845250816730E+00 -7.238534186726E+00 -2.793653922453E+00 -1.548186257488E+00 4.299585310715E+01
 7.221519171145E+00 -6.179958463372E-01 6.889582415739E+00 1.344632803815E+00 -8.295647461667E-01 2.267792400108E+00 -6.155148956603E-01 -1.802652764333E+00 -6.573696963940E-01 1.318660006871E-01 1.008469258323E-01 -1.011006692198E+00 -5.357664505334E+00 -2.226035772189E+00 -2.587823191909E+00 5.090162099011E-01 4.640659911283E+01
 -1.240181327252E+01 9.679950788184E+00 -1.046010336556E+01 -1.032017091079E+00 2.606311158837E-01 7.097447173928E-01 2.161399315426E+00 -1.166305931940E+00 -1.127295657330E+00 4.819605736909E+00 1.196988141438E+00 1.884276765902E+00 -3.762747231967E+00 -3.162819819213E+00 -2.666576687714E+00 7.608132442358E+00 -1.185206151653E+01 6.286276309567E+01
 -1.591984731965E+00 -1.909870197627E+00 -1.835089226002E-01 -5.178321467930E+00 3.474667264319E+00 -3.619829423508E+00 3.853029541601E-01 1.653503586954E+00 -7.555770716909E-01 -1.875873845967E+00 -1.938418313050E+00 -1.311223750787E-01 2.789983929597E+00 -1.197500037345E+00 -2.105063611295E+00 -1.153165974577E+00 7.534311150139E-01 1.207129969318E+00 2.995592962057E+01
 -4.559639031002E+00 -3.889576647293E+00 -1.778907089322E+00 3.880883319312E+00 -2.602820703248E+00 1.031995130889E+00 -1.699114829153E+00 -3.323571099947E-01 7.835299811350E-01 1.241074865359E+00 -5.590599237545E-01 -1.537177895694E-01 -5.209798075663E-01 1.306752778587E+00 -1.780935689457E+00 7.230532893899E+00 -1.088820655360E+01 -8.172977668284E-01 -1.655141709358E+00 2.113739016796E+01
 -4.839744523178E+00 -5.028620649684E+00 -2.382033929948E+00 -4.402103319636E+00 3.394421473068E-01 -5.006287478836E+00 -2.093948151132E-01 1.190431133107E+00 -5.275346002114E-01 3.815970114501E-01 -5.632945341073E-01 7.024436426588E-01 -4.479761244041E-01 1.744779619099E+00 -2.335497942445E-01 1.669510285822E+00 -4.450265720044E+00 9.518389162658E-02 2.776761909058E-01 1.315649087579E+00 1.764747598197E+01
 -9.513537014443E+00 -4.969810666118E+00 -5.297704771319E-01 -4.111058439726E+00 1.425814830916E+00 8.377297862771E-01 1.795544568564E-01 -1.747658966013E+00 1.586123811703E+00 1.175191974645E+00 -2.226701173829E+00 1.415223475220E+00 -1.351072063166E+00 2.114480203764E-01 -3.421021462431E-01 1.051022897695E-01 -7.079719665442E-01 1.115537251290E+00 -8.215766279947E-01 8.180536257863E-01 1.740043472594E+00 1.776222426081E+01
 -8.159982354499E+00 -7.259272335494E+00 1.545828943810E+00 -9.538961169882E-01 -2.340427952201E-01 -4.474316760685E-01 -2.340017605031E-01 -1.868366181148E+00 -1.173266649761E+00 5.891990232712E-01 -1.617879570374E+00 3.936956907625E-01 -9.874456242013E-01 -1.675641916098E+00 -2.508752073508E+00 1.333056332910E+00 3.296580092756E+00 -7.815148952575E-01 7.232810320062E-01 -2.166246929169E+00 2.247491999127E+00 6.980276270607E+00 1.973611928851E+01
 2.372271771616E+00 4.590183590685E+00 -5.663986932216E-01 1.129122961834E+00 2.973145282920E-01 4.209857591043E-01 1.766103017590E+00 -2.364323423087E+00 -7.869822484200E-01 -1.506958548690E+00 -1.363444723642E+00 -3.471802562572E-02 8.562394669537E-01 -1.788491586282E+00 -1.473427756946E+00 -8.621359656629E-01 -2.285954490623E+00 -1.396068132419E+00 2.531059373263E+00 2.100825200193E+00 -7.673645465913E+00 -5.772076317820E+00 3.921007687044E+00 1.681125099762E+01
 -1.300181361960E+01 -3.114953335348E-01 -1.875386715198E+00 -1.452513211750E+00 -2.758516284553E-01 -6.743710961294E-01 3.154051694334E+00 -2.680407311505E+00 2.230926901262E+00 -9.276287363365E-03 5.686760311717E-01 1.004115344416E+00 1.946311442066E+00 3.416678462296E+00 -1.193411628012E+00 3.055318373610E+00 -1.491386264891E+00 1.033033842728E+01 3.986823829093E+00 -4.819667858220E-01 1.551003700954E+00 8.520110367467E-01 3.185700585329E+00 -1.766003452979E+00 4.222126986351E+01
 -2.796923100975E+00 1.797778856854E+00 1.661307442280E+00 4.515747028686E-01 2.456575699991E+00 -7.434321035126E-02 -2.798849383035E+00 3.114941608933E+00 -4.191113733298E-01 3.277102197570E+00 -1.347846738153E+00 7.148302076478E-01 4.464852103938E+00 2.662992138233E+00 4.100863204558E-01 -4.399685831296E+00 -5.796057685438E-01 4.737414868724E+00 -1.458560747829E+00 3.949610783533E-01 1.059934230359E+00 -2.143180977188E+00 -8.233894899929E+00 -3.448942147438E+00 9.523310239177E+00 3.627285852016E+01
 5.866417684121E+00 1.446110019771E+00 -9.018099015834E-01 -9.990623497067E-04 2.274310757772E+00 2.159378712512E+00 -2.893061773860E+00 -2.926489487408E+00 -1.814069353559E+00 2.115989266450E-01 5.739607359110E-01 -6.791047623168E-01 6.265601110441E-01 -3.465444292025E+00 -9.169661194560E-01 1.007769083095E+01 3.825594331439E+00 -2.306061040464E+01 -3.645793688333E+00 5.945304754097E+00 1.806204577126E+00 3.600495747530E+00 -6.437003399441E-01 3.770791801902E+00 -2.185626229578E+01 -5.857432992478E+00 5.436876016879E+01
 3.312530331159E+00 2.883762777402E-01 4.278892360759E-01 -5.934093609363E-01 6.404919755185E-01 1.631576295896E+00 3.883529133847E-01 2.854539481423E+00 4.286673215363E-01 -3.751547484309E+00 5.517354424059E-01 9.463955210457E-01 -1.889479776393E+00 -2.427192497911E+00 2.353088231723E+00 -1.070237362135E+00 -2.441189039760E-01 2.938921567418E+00 2.577686079666E-02 -4.830373290260E-01 6.361100224033E-01 -1.634636932051E+00 1.389537598948E+00 2.093164888780E-02 -6.282887801542E+00 -1.373725753490E+00 1.945331375973E-01 1.597830194643E+01
 2.474636569190E+00 -5.572582074968E+00 -2.747109652141E+00 -8.762164999021E-01 -1.183729799553E+00 -2.423483722099E+00 1.279780600784E+00 -5.407794786787E+00 -7.888645830728E-01 1.269147334640E+00 1.386647635889E-01 2.086558811096E-02 -1.656750577500E+00 -3.506942518595E-01 2.844950323121E+00 -1.197477332337E+00 1.926023600607E+00 -4.997619875579E-01 -9.078052119121E-01 9.093146564559E-01 -2.322926649249E-04 -6.542427933379E-01 5.814107473253E-01 -5.005046723279E-01 -4.535504628688E+00 -3.025433359628E+00 -3.465932704641E+00 1.310285106141E+00 2.286502343019E+01
 5.301033207547E+00 -7.605216673996E+00 -6.491174625402E+00 -2.220043672353E+00 1.180050304296E+00 5.161235936617E-01 2.135529465164E+00 -8.734143239663E-01 2.291272269080E+00 -8.346278296590E-01 -5.669060712380E-02 -1.545843019070E+00 -6.483124358246E-01 1.706275851910E+00 -5.839529347761E+00 1.042640393023E+00 1.776533846835E+00 1.806907779412E+00 1.504910812704E-01 -7.333832199346E-01 1.332538979597E+00 -2.427373822520E+00 2.109478353440E+00 -1.513909916292E-01 -2.647701619048E+00 -4.456005478658E+00 -2.637489043625E+00 -3.261185166827E+00 2.246112572011E+00 1.646461718911E+01
 -5.552067008009E-01 1.193399422325E+00 -1.865719298697E+00 9.402006232843E-02 -1.328671784894E-02 -1.220433734939E+00 -1.045454794430E+00 -4.763013293687E-02 5.914935721584E-01 2.739862106965E-01 2.363721830649E-01 -3.767336361864E-01 -2.376307693073E+00 2.038024386096E+00 -2.698980008855E+00 6.386911797779E-01 -2.379633021878E+00 2.187760402210E+00 2.112424596949E-01 -4.363656920536E-01 3.003707735859E-01 -4.460545607778E-01 5.997569067652E-02 -1.599119680378E-02 1.619950216391E+00 -8.127531872831E-01 6.033314736581E-01 -4.863258817037E-01 1.747271503277E+00 4.415558746635E-01 6.765356294158E+00
 -5.235362411347E-01 -2.782348564577E+00 -2.261730416490E+00 -1.501381371855E+00 7.469944885164E-01 -3.768758882911E-01 -2.478673240168E-02 -2.012967354552E+00 6.002364853810E-01 2.380542219232E+00 5.497877699491E-01 9.035884732497E-01 6.386099091862E-01 -2.607489449772E+00 1.216854727859E+00 -1.644993124801E+00 -2.231788373125E+01 1.077779581229E+01 5.347746483876E-01 4.751282022909E-01 1.906865140267E+00 2.556611853442E+00 -8.987063069489E-01 4.652603165439E-01 1.009631240004E+00 3.350914472376E+00 -3.362740723016E+00 3.554277592835E-01 1.297662144033E+00 5.918713085422E-01 2.922279051751E+00 2.952579001316E+01
 -2.386168320434E+00 1.208161881240E+00 8.263754285857E-01 1.637042229231E+00 -1.760195564309E+00 -3.151452885084E-01 1.250936268630E-01 1.942040370190E+00 -1.075114644488E+00 -2.719790575124E+00 4.168025180526E-02 -3.852655639084E-01 -1.666196759521E+00 1.843589120685E+00 -4.701256445805E+00 -8.631798077231E-01 1.260366165853E+01 -4.788469778516E+00 2.492654772448E-01 -8.972688612265E-01 -3.533314464045E-01 -8.642337755588E-01 -3.438155727429E-01 2.607641668876E-01 9.341776100184E-01 -5.877421640816E-01 1.744382043998E+00 4.225080854327E-02 5.067528108619E-01 -1.014808498288E+00 8.735654402681E-01 -1.137738720527E+01 2.012867581251E+01
 2.676644480293E-01 -3.804711053687E-01 -1.024618899663E+00 -5.457496914012E-01 1.589213691373E-01 1.793027757455E-01 -5.614467331576E-01 -8.442091256139E-01 -1.107633398673E-01 -5.443463564463E-02 -2.712948220552E-01 -2.935584494686E-01 -2.531016215705E-01 -7.770014070428E-01 -6.591561669024E-01 -1.776206350721E+00 -1.735642897359E+00 -9.668382068668E+00 -2.284820297272E+00 -1.521063091816E-02 -1.766771310499E+00 1.072183710859E+00 7.253839972075E-01 4.460580044720E-01 -4.180430344333E+00 -5.685011615101E-02 2.800612530804E+00 -1.470947478740E+00 1.494244324118E+00 -1.075591254711E+00 -2.128492202596E+00 -1.992796986492E+00 6.713465806643E-01 1.002933300916E+01
 1.675943036636E+00 1.629267171931E+00 2.648657884004E+00 7.764671296457E-02 -5.109003833234E-02 -1.092851893817E-01 -1.637108202359E+00 -1.962929944340E-01 -7.575734016730E-01 -1.247808698378E+00 6.398483697373E-01 1.396613909413E-02 8.721074742602E-01 -2.638949801551E-02 1.207742202312E-01 -3.666338180824E+00 -3.327554995247E-01 -5.213676616178E+00 1.197545693484E+00 -5.043169996973E-01 1.841151733873E-01 -9.767974803511E-01 1.889326155471E+00 1.118947052441E+00 -1.474257792565E+00 -1.903102660818E+00 -9.990500489045E-01 7.351547672257E-01 -1.270015984751E+00 -1.346632746435E-01 -1.912567428671E+00 -5.203142612656E+00 -2.400503013096E+00 2.856531435205E+00 1.032083402396E+01
 8.595784000341E-01 -3.510139301702E-01 -1.981164592912E-01 1.219046747540E-01 -2.516808099961E+00 -7.843327847942E-01 -1.125641313399E+00 3.984824960345E-02 7.267331426865E-01 5.886894934605E-01 8.663313415419E-01 -4.527790819034E-02 -9.107375965031E-01 1.894144906117E-01 1.415916009481E+00 -7.823263280404E+00 -6.166300844718E+00 -2.344911343811E+01 1.156107733404E+00 -2.083766882781E+00 -7.228109750957E-01 1.091630530160E-04 -3.932532694624E-02 1.076727236958E+00 -3.860549539950E+00 5.827202797440E-01 4.607885554028E+00 -1.962297369075E-03 1.789820354077E+00 2.095809344625E+00 -3.897534273229E-01 5.714069979795E-02 -3.235101299436E-01 6.393184432519E+00 4.277393066054E+00 2.987269348707E+01
 -7.428290850874E-01 2.878775289146E-01 5.058665807008E+00 8.905970572340E-01 -5.880522904769E-01 1.246533453685E+00 9.279188193704E-01 -6.087395137737E-02 -1.775805959119E+00 1.422331950428E-01 -1.363386146842E+00 2.177028306914E-01 -5.226238123910E-01 2.061961813952E+00 -1.515799915480E+00 -1.063781417269E+01 4.747903369218E+00 -3.104339776446E-01 2.862536897198E-01 9.091394485451E-01 -1.753659118589E+00 4.063285191556E-02 -5.922506598633E-01 -6.898483674513E-01 -1.389533426356E+00 6.330058873147E+00 -6.577060876743E+00 -1.538040100390E+00 -9.655005419613E-01 9.240640228506E-01 1.274461704617E+00 -9.250968472882E-02 -1.683413633106E-01 1.664166272094E-01 -5.785195821141E-01 -2.602179759728E+00 2.387981744411E+01
 3.121541723766E-02 3.518827706792E-02 -7.196042935560E-01 -2.252347575609E-01 -1.589814613419E+00 1.627312390408E-01 1.080930984830E-01 -6.021471811174E-01 -1.000896985153E+00 3.742747183046E-01 -2.490934484597E-01 2.829258722381E-01 -1.233083491605E+00 -2.009588165208E+00 -3.341895513842E-01 4.919516821580E+00 -7.753783648398E-02 -1.161928410827E+00 -1.652210542645E-02 1.230470818353E+00 8.029484629248E-01 9.801168036453E-01 9.291563239365E-01 1.564859843489E+00 1.298492604229E+00 -3.668553833001E+00 3.433054004280E+00 -1.221100918467E+00 3.644060486090E-01 -3.805899849728E-01 6.301785135874E-01 -7.024906455593E-01 -4.021317110217E-01 2.336393182002E-01 -5.217657977559E-01 -3.822253365996E-01 -8.038627032258E+00 1.906910950773E+01
 -1.641787471134E+00 3.666676362482E-01 6.960106602131E-01 1.262297372019E+00 -2.004775774632E+00 -2.070103605833E+00 -5.827800612228E-01 4.188148909709E-01 -6.434465257969E-01 9.880983951412E-01 8.729180007687E-01 -5.351223580734E-01 -2.921362757339E-01 -2.080074188187E-01 3.254363316389E-01 -7.362332912994E-01 2.154884391581E+00 1.264192524498E+00 -3.977703617358E-01 -3.146862945018E-01 4.401611761914E-01 -7.654603856775E-01 5.395618921591E-01 2.974753718689E-01 -4.232357319217E-01 3.700450327389E+00 -3.863915136405E+00 -1.657394097489E+00 1.348562282071E+00 9.849785544018E-01 -7.592892012933E-01 -5.206281322954E-01 -7.589523429256E-02 9.383041462034E-01 -8.982877632130E-01 -1.645242612238E+00 8.689993863118E+00 1.961338447304E+00 9.201061772792E+00
 2.735175308194E-01 -2.222338699877E+00 -4.969227662480E+00 -8.616414668776E-01 3.286283006093E+00 1.565520565861E+00 2.127322883177E+00 -1.091511010159E+00 3.558525644704E-01 6.091495496176E-01 1.181866438448E-01 -1.284040090924E-01 -1.031340154995E+01 2.754256345879E+00 4.148549738228E+00 2.270152884676E+00 4.421804242684E-02 -4.038113426567E-01 -1.921548276506E+00 -1.699296925847E+00 1.245657155554E+00 -6.701606648171E-03 -1.663747077502E+00 -2.016525659120E+00 -3.315358397323E+00 -3.463711170676E+00 -2.999737829669E+00 8.737775795666E-01 3.725667329905E+00 1.892514931456E-01 -2.548861269278E+00 -2.888219910894E-01 2.538840229920E+00 4.967345827836E-01 1.830968052854E+00 8.165460077191E-01 -5.863141557583E+00 -3.839280662359E+00 -3.511169896026E+00 2.376763414077E+01
 4.290767982849E-01 3.050631555873E+00 9.612726286441E-01 -2.995449028414E-01 -9.165178104769E-01 -5.910459297957E-01 1.296174693201E+00 -1.996826534695E-01 2.047370309980E+00 -2.376581466520E+00 1.045274718982E+00 -9.590210457054E-01 2.833932473147E+00 9.224715738892E-03 6.102773964516E-01 -1.433146405886E+00 -5.040771137162E+00 -6.291077694129E+00 8.393132883621E-01 -2.225413484992E+00 6.813353750359E-01 -2.817457490816E+00 1.519128453084E-01 8.962580335274E-01 -2.586411331069E+00 -1.248785591529E+01 4.333306762478E+00 1.834673193077E+00 -2.393024667072E+00 1.264740392263E+00 -4.574109267529E-01 -5.981132673152E-01 3.578653228713E-01 1.200812230696E+00 1.632650680735E+00 5.865545531364E-01 -3.778987557928E+00 -7.623427222503E-01 -3.450903313021E+00 2.479431892634E+00 2.021732722068E+01
 4.171361488286E-01 -1.086954864608E+00 9.304016649525E-01 1.954090281586E-01 1.540833539049E+00 -2.223101411618E+00 -2.486596017882E+00 1.989682065660E+00 1.423038704163E+00 -3.498492375362E-01 -1.612564770557E+00 -1.500325084901E-01 4.302424288753E+00 1.451699426995E+00 -6.259433984074E-01 -7.312554436250E-02 -1.770695289720E+00 -3.960033156398E+00 6.945664974233E-02 7.240399466139E-01 -2.304155301571E+00 9.106507252269E-01 -2.602341509191E+00 -4.047122133806E-01 2.024420375565E+00 2.984087053916E+00 2.182658236331E+00 -1.442352388343E+00 1.763591388027E+00 -3.515653338770E+00 2.721203754898E+00 1.300471057800E+00 -6.984298210111E+00 5.554209665826E-01 -2.509024692105E+00 -1.341872502320E-01 -3.289501666636E+00 -3.214733529592E+00 -3.084166862302E+00 -3.646458899020E+00 2.756885152603E+00 2.243675668554E+01
 -1.641093063452E+00 1.599605422011E-01 8.369745287048E-02 -7.761429470101E-01 1.395266581871E+00 1.002420401939E+00 -6.714254344834E-01 2.689356893338E-01 3.670430169088E-02 6.003078759950E-01 -6.574634174339E-01 8.118301002049E-01 -3.682518133762E-01 -2.043030957046E+00 -9.325780834541E-01 3.130919440717E-02 3.069120067935E+00 -7.640043136393E-02 -7.697556138325E-01 5.957928149911E-01 -7.987698521601E-01 5.042641050404E-01 -2.020222847728E+00 5.516923491886E-01 -3.325236359747E+00 7.936072641409E+00 1.061977386442E+01 -1.008226286856E+00 -5.022374094599E-01 1.964883355135E-01 -7.868228611425E-02 -9.140965890229E-01 -2.286753885983E-01 1.833973889639E+00 -8.112251108824E-01 6.412241342609E-01 -7.624054470434E-01 4.658303274898E-01 -1.498732584603E+00 -4.282940090127E+00 -6.012549185271E-01 1.519281941054E+00 1.483732363700E+01
 4.074412851567E+00 -2.670680983318E+00 2.197910925647E+00 -1.463415824298E-01 -1.298902705709E+00 -1.488334383633E+00 -1.524541703948E-01 8.779410223512E-01 -4.941578710709E-02 -2.479699319907E+00 -9.189047505595E-01 5.585938878656E-01 -7.090260214011E-01 2.067620180750E+00 2.519745115923E-01 1.107672011895E+00 1.917421518258E-01 1.173852305804E-01 -2.365101578474E-01 -3.861266996347E-02 -2.153316407734E-01 1.344460823782E+00 -8.402587944577E-02 -1.430858585452E+00 7.749493946591E+00 -5.251032838429E+00 -9.001375548273E+00 -3.547393402379E+00 5.239988648096E-01 -1.629735911971E+00 -3.498027911878E-01 6.537348729089E-01 1.142895047858E+00 -2.433743407394E+00 -2.599454845787E+00 1.906357047866E-01 -9.976507411440E-02 -2.004085066734E+00 1.444947230663E+00 2.148930417158E+00 -3.723190672266E-02 2.401688761013E+00 -6.830381605758E+00 1.856872418867E+01
 1.066361548530E+00 -3.144204965650E+00 -2.939594751800E+00 -1.152439527148E+00 1.123297600792E+00 4.909828055823E-01 1.615121871252E+00 -1.188373894182E+00 6.741863902943E-01 -5.356278340670E-03 8.322882712747E-01 -1.691017514834E-01 -1.596264089712E+00 1.279620587107E+00 1.457434166832E+00 2.238290336286E+00 -1.958765537350E+00 2.043255999736E+00 1.586246083964E+00 4.618703783021E-01 2.122131380068E+00 -9.725771452004E-01 5.376343335321E-01 -1.571670688716E+00 6.563891196835E+00 -9.919434983786E+00 -1.514393665003E+01 -3.864732217828E-01 1.591202072122E+00 2.627091443767E-01 -2.681798259376E-01 1.490570896282E+00 -1.101632452212E+00 -2.058526931080E-01 1.694546469968E+00 -1.858458524307E+00 6.868142733166E-01 -5.624529894974E-01 5.959535067990E-01 3.524006378934E+00 2.730556342193E-01 -3.833963543981E+00 -8.820954846137E+00 1.138611758154E+01 1.828549758756E+01
 -9.617459200203E-01 1.798753886649E-02 1.503971797163E+00 1.517901649256E+00 -2.952441587771E+00 -1.068249961175E+00 -3.243721388694E+00 1.635430240160E+00 -1.904325676588E+00 -1.976608712653E+00 -2.085221495714E-01 4.084518538552E-01 -1.245802682144E+00 2.578577823153E+00 6.299786056588E-01 1.063641384603E+00 -2.176356902450E+00 -3.142193938847E+00 -2.954312914919E+00 -1.694295326820E+00 -1.806969559503E-01 -2.350379285540E+00 5.412674511606E-01 3.340493962877E+00 -2.196621783651E+01 -1.178375336429E+01 5.260535215400E+00 -3.640934811397E-01 3.140845820982E-01 1.091182923786E+00 1.435506082755E-01 -5.249844953411E-01 -9.210679716905E-01 1.528642778897E+00 2.240556152572E+00 2.249576048841E+00 -2.515623107944E+00 2.892835487219E+00 -1.567884541942E-01 1.608045289083E+00 -3.238527219800E-01 9.810047067574E-02 -4.143675291680E-01 -1.906942999581E+00 -1.973775233937E+00 3.247306508951E+01
 -2.473540722448E-02 2.282097253571E+00 1.261215358970E+00 1.706666828644E+00 -1.272011499486E+00 -4.704248814894E-01 -1.466261341956E+00 6.013769159796E-01 -1.122602654157E+00 -5.686508452109E-01 2.306526224534E-01 -4.263010292939E-01 -2.959122755868E-01 -5.046636608960E-01 5.845052736226E-01 -2.252821803776E-02 -9.203200321375E-01 -3.143647473496E-01 -8.607823637948E-01 8.062149872132E-01 -3.797543097857E-01 1.884802753463E+00 -3.950312833637E-01 1.432827786552E+00 -1.159418567711E+01 -6.132012786187E+00 3.095619015417E+00 3.428937023980E-01 -7.640585038025E-01 -4.784565960372E-01 -1.132535913379E+00 -1.536538345766E+00 5.833296226298E-03 4.675904751988E-01 9.344009214064E-01 1.872683810571E+00 -8.677120416433E-01 8.723874491367E-01 -1.104107055261E+00 5.178787989994E-01 -3.714294493163E-01 5.048340089047E-02 -2.400524662622E+00 -6.322132735172E+00 -3.610633680943E+00 1.112068085260E+01 1.409758585074E+01
 6.693212508432E-02 9.374016022959E-01 2.747491182458E+00 -7.980200555932E-01 -9.424035933855E-01 -4.199801735192E-01 -1.320707159850E+00 1.158340933685E+00 -1.062830839119E+00 -1.666396911849E-01 5.050969502466E-01 2.573613248445E-01 -3.781232734420E+00 -1.428502860972E+00 -2.111312582994E+00 4.391171881791E+00 2.202369784420E+00 3.546356448293E+00 -7.892216496787E-01 -5.702508464276E-01 -1.307666331683E+00 -4.887723060128E-02 -2.169729304501E-01 -1.711251174595E+00 6.531507762035E+00 2.577922025339E+00 -2.420888576260E+00 -2.339505557479E+00 -1.847350742884E+00 -1.024741579530E-01 4.699036712642E-01 1.961610458150E-02 5.617562748621E-01 1.479557550171E-01 -8.857300431833E-01 -2.837052779913E+00 7.125876506843E-01 -1.100109155443E+00 -6.541363824183E-02 2.911327871557E-01 -1.311296898412E+00 1.140327831058E+00 -2.573654261511E+00 7.374907587568E-01 -2.838267098742E+00 -1.383426339334E+00 -6.701247340876E-02 1.326497103754E+01
 2.488092974488E+00 2.997679952935E-01 2.886077866069E+00 -3.066168388187E-01 -1.787904689477E+00 -6.928415419738E-01 8.336938664913E-01 -9.815143039646E-01 3.375962660073E-01 2.024729523868E+00 1.767682528886E+00 3.912911457147E-02 -1.526870300125E+00 -9.969374572831E-01 7.053475510284E-01 -7.892940994829E+00 -3.588273689271E+00 -6.396348658459E-01 -1.494090244485E+01 4.253065382594E+00 6.586545497605E+00 -2.997946134906E+00 -1.841835494299E+00 -1.501001640989E+00 1.019417352231E+00 -1.550580529690E+00 -2.145371584614E+00 -4.655124314749E-01 1.465212615719E-01 1.543962348057E-01 -2.033481053573E-01 -1.285186597262E+00 5.245828228465E-01 -1.062061232614E+00 2.254330677698E-01 -1.173790729482E-01 -2.406792037236E+00 3.065379410458E+00 -8.375350012956E-01 7.254431001384E-01 4.495935508304E-01 -5.705758679507E-01 -6.892489837172E-01 1.134764723569E+00 -7.046891343354E-01 2.364178507517E+00 7.954656974315E-01 2.993418887933E+00 2.468742280963E+01
 6.188155775993E-01 1.279509100633E+00 1.344167575194E+00 1.055897093833E+00 -6.483312196010E-01 7.876884642405E-02 3.105741001073E+00 2.394947052701E+00 1.951421808706E+00 -1.213909878594E+00 -1.054603586075E+00 5.269752856235E-01 2.054529373707E+00 7.482349501371E-01 -9.771241941773E-01 -8.391694414640E+00 -6.185234922962E+00 7.692589233082E-01 5.164759658032E+00 -1.930063982276E+00 -2.744422994221E+00 -6.150291587391E-01 -9.186322997927E-01 -1.171071080721E+00 -2.309845834251E+00 -5.581621853679E+00 -2.418241384480E+00 8.321752204706E-01 -3.466573885762E+00 1.806093151190E+00 -1.784817984129E-01 5.207056464497E-02 -7.570768590373E-02 -8.650211082646E-01 -2.378337852417E+00 2.115284911711E+00 2.035492547819E+00 -1.047389396689E+01 -3.059630930137E+00 -2.424434120930E+00 2.410706320736E-01 -1.449456164201E+00 -6.056836254850E-01 1.112114499539E+00 -2.398729603696E-01 1.824589994449E-02 3.433954250525E-01 1.187869468875E+00 8.709783408119E-01 2.660410756927E+01
 -7.245219880046E-02 -7.117290319133E-01 1.427376926472E+00 4.834989025278E-01 5.763074062158E-01 -9.974254395353E-02 -1.386277573737E-01 -8.083178985116E-02 2.426117204437E-01 -7.562353346719E-01 -6.392681618234E-02 -9.733064025924E-01 3.494163226268E+00 1.703740210134E+00 -2.153606897394E-01 -5.290858292463E+00 1.451962259427E-01 -1.528050185530E+00 5.758309451799E+00 -2.888548269475E+00 -8.543338181054E-01 -2.338002831079E-02 -1.393040002162E+00 -9.021505493411E-01 -1.999380427337E+00 -1.479573047021E+00 -1.530031744539E+00 -1.226582885434E+00 7.284556200553E-01 -1.348381742990E+00 6.469895812756E-01 -5.549530117175E-01 -9.027256208761E-01 3.111773819895E+00 4.453712955490E+00 -5.483153250157E+00 1.406851123075E+00 -6.482128276154E-01 -6.783415090028E-01 7.007911792124E-01 -8.212110831290E-02 -1.403690952928E+00 -1.165339918049E-01 -4.659186213055E+00 3.097769282266E+00 1.718227561004E+00 -1.348877648503E-01 -1.819784265608E+00 -6.428626410875E+00 2.696158134095E+00 1.452888544341E+01
 1.672260618739E+00 3.000379042031E-01 -1.404635214820E+00 2.608178807000E-01 1.381553092717E+00 1.041365209423E+00 -5.066162440415E+00 7.438997157116E-01 3.962951013846E+00 2.990207030012E-01 -1.382680635390E+00 8.501769306248E-01 1.615740432261E+00 -5.555232939322E-01 -6.657839638879E-02 -3.155442444663E+00 -1.452629870340E+00 -5.023485255042E+00 5.254034587143E-02 6.706378035554E-01 -1.483874090366E-01 3.356363722347E-01 1.123784480048E+00 8.021203219107E-02 8.924866069284E-01 -1.672780826516E+00 1.725039408807E+00 -2.495203702311E+00 -2.532124967419E+00 4.272285778644E-01 -3.240769086773E-01 -9.455144661730E-01 1.157948952902E+00 -5.486833053549E-01 8.531911082761E-02 3.319537642869E+00 2.734061368008E-02 5.322177518233E-01 -1.368310426361E-02 -1.868589847078E+00 2.387327076931E+00 -4.880928295316E-01 -2.056924386325E+00 1.135195451744E+00 -4.057230164297E-01 -3.306337408111E+00 1.915666777718E+00 -3.036612135559E+00 -7.500944674662E-01 8.922712657489E-01 -2.822699981377E+00 1.474437306343E+01
 -8.065848835810E-01 -1.824436522139E+00 -3.707386016229E+00 -5.614811077548E-01 1.669116553618E+00 1.215915334206E+00 2.294720658570E+00 -1.772777013176E+00 -1.542117693229E+00 8.517346751133E-01 7.358443059305E-01 -1.097228745677E-01 -1.978869819195E+00 -8.290215936434E-01 2.084374693771E+00 2.717414702248E-01 4.220443482033E-01 3.284973884062E+00 3.610460057342E-01 2.225713565932E+00 8.375983300568E-01 1.558095026712E+00 -2.579947327393E+00 -2.445981072468E+00 1.426883742406E+00 -3.757569902196E+00 7.326163077725E+00 -2.040103331073E+00 -3.976481360314E+00 2.272858904717E+00 -8.189817054132E-02 6.194157966556E-01 -1.006330008447E+00 1.055745721238E+00 1.677038354006E-01 -1.340159532408E+00 4.980687138129E-01 -1.914691329893E-01 -6.000062107517E-01 -1.012790503540E+00 -1.514147910747E+00 -5.847740261527E-01 2.322555374819E+00 -1.988054158842E+00 8.178554725599E-01 -7.608856876021E-01 -9.243917570282E-01 -1.926723745997E+00 -6.520562328207E-01 2.197574378789E-01 1.996116496046E+00 -1.591495719299E+00 1.510158628636E+01
 -1.671120647641E+00 3.418970740696E-01 3.373122067292E+00 1.035259699628E+00 2.599571589403E-02 -2.897223264501E-01 1.909834585518E+00 2.050964068928E-01 1.250813531943E+00 3.610578599738E-01 -8.277809755971E-01 -2.666423879993E-01 2.946382532235E+00 1.686269782253E-01 -6.731409247783E-02 -2.441844260554E+00 -2.195807935459E-02 -1.510822119685E+00 -6.620219067516E-01 7.736573970566E-01 -2.105840220372E+00 1.050761112695E+00 -2.005842791302E+00 -6.146122163266E+00 2.067464352173E+00 9.740993985923E+00 -1.942065610555E+01 1.010020106935E+00 3.232642698723E-01 -1.297805665759E+00 -1.029387294773E+00 -8.121688369413E-01 -1.229664520398E+00 3.522281084713E-01 -2.846497652914E-01 9.758267637997E-02 1.415196073860E+00 1.113494013824E-01 -9.372223364011E-01 -9.883126674547E-01 -4.035258681417E-01 1.460365143314E+00 7.351661989819E-02 -2.136616053117E+00 5.892452356523E-01 -3.844780936849E+00 1.249607842392E-02 -2.861807143558E+00 -3.725303033669E-01 1.740250373880E-01 -6.047340563631E-01 -2.969342531281E-01 -5.946423213372E+00 2.969458042645E+01