#BIOSYM hessian 1
@Type: Hessian Update
@Units
 distance: 	A
 energy: 	Kcal/Mol
#header
@natom 19

#label
L1      L2      L3      L4      L5      L6      L7      L8      L9      L10     L11     L12     L13     L14     L15     L16     L17     L18     L19

#element
Li Li Li Li Li Li Li Li Li Li Li Li Li Li Li Li Li Li Li

#matrix
57
 1.137199754609E+00
 -1.192245051805E+00 1.265312976094E+00
 7.285078927841E-01 -7.753823482573E-01 8.460318453749E-01
 1.396346742097E-01 -1.492558829689E-01 2.523218498315E-01 7.729321585443E-01
 3.278807845146E-02 -3.720453825026E-02 5.890666613542E-02 6.901340351733E-01 7.660156358785E-01
 -1.400257519158E-01 1.522518025465E-01 -2.524089230565E-01 3.206465510691E-01 4.294565404971E-01 4.540165742611E-01
 -1.847547950870E-01 1.994352390247E-01 -3.369770001864E-01 -1.205033234014E-01 -2.705545504498E-02 1.195650329345E-01 1.098298074733E+00
 -6.713383585402E-02 7.415260865828E-02 -1.124351088380E-01 -3.842192449104E-02 -8.938331943186E-03 4.038274563574E-02 -9.174246750405E-01 1.039111177016E+00
 1.015720735373E-02 -1.064073821339E-02 2.616353943049E-02 8.820854169813E-03 2.268359583592E-03 -8.496871448024E-03 -4.882569624011E-01 4.935574952112E-01 2.512906476899E-01
 -1.010816404929E-01 1.078427223631E-01 -1.759994848819E-01 -6.193242100027E-02 -1.291934739831E-02 6.319616218180E-02 8.246298566247E-02 3.081278231988E-02 -5.443017685485E-03 8.197340805904E-01
 -8.881243762098E-03 1.039884703561E-02 -1.597882651573E-02 -7.649513069614E-03 -1.411887737470E-03 4.426611492072E-03 5.502784891436E-03 -3.275373512824E-04 -1.871981617378E-04 7.532242841694E-01 7.896581426620E-01
 -9.504586502391E-02 1.006000668260E-01 -1.763203942932E-01 -6.334338092423E-02 -1.599165025164E-02 6.175747020050E-02 8.494512948583E-02 2.031111847730E-02 -8.418428929903E-03 -3.579359820104E-01 -4.373698644101E-01 3.198057218516E-01
 7.148737286405E-01 -7.280766286403E-01 1.362540035661E+00 5.129817325408E-01 6.710896706928E-02 -3.993905508210E-01 -6.168268515237E-01 -1.336274333260E-01 6.041631703799E-02 -2.828313951252E-01 -5.376344256052E-02 -3.906540034206E-01 2.022895003471E+01
 -5.338177480506E-01 5.382206685866E-01 -1.127324241857E+00 -3.959912360031E-01 -7.628691195817E-02 3.793694336206E-01 5.516594980542E-01 5.718869501178E-02 -8.115994618260E-02 2.204443578217E-01 4.175945007048E-02 4.074075779376E-01 -3.233173516226E+00 2.399394079088E+01
 -2.192264833216E+00 2.292320355098E+00 -4.151887750442E+00 -1.473877796416E+00 -2.909224797674E-01 1.382475699320E+00 1.958594287490E+00 4.730952186494E-01 -1.962808475551E-01 9.231330479114E-01 1.143145846103E-01 1.188155943706E+00 -2.237936469777E+01 2.601461143710E+01 6.275604565740E+01
 -1.469250103971E-01 1.622631967355E-01 -2.830720052995E-01 -8.756423131529E-02 -1.395684902675E-02 1.416978688595E-01 1.392666409299E-01 3.692379670150E-02 -1.339599994533E-02 6.594466863088E-02 4.445993197479E-03 7.433868783593E-02 -7.764314638848E-01 -4.135956572760E-01 1.047283999479E+00 4.053068268671E+00
 -6.919298076344E-01 7.689203596467E-01 -1.156743404749E+00 -3.770209229557E-01 -1.667164005279E-01 4.271158176697E-01 4.905334889129E-01 2.478021216100E-01 8.693153793279E-03 2.648173077930E-01 2.499485325459E-02 1.932539924788E-01 2.096458955878E+00 -3.611744518688E+00 -2.941541484520E+00 7.897528801295E+00 9.251386642633E+01
 -1.150565026945E+00 1.262236463003E+00 -2.013674375633E+00 -6.716896538917E-01 -2.270961397662E-01 6.858226483395E-01 9.078315242845E-01 3.539993442906E-01 -3.495219337372E-02 4.742596855265E-01 4.253878900158E-02 4.315428452987E-01 -2.670616247158E-01 -7.105826090648E-01 4.369037391315E+00 7.147218653087E+00 7.227752138962E+01 6.147402069468E+01
 1.669990286543E-01 -1.801845651138E-01 2.947716543979E-01 8.171341862867E-02 3.115406207752E-02 -1.405872048926E-01 -1.389781889005E-01 -5.104604733977E-02 1.005614506698E-02 -7.398234677514E-02 -6.032203479540E-03 -6.803280889571E-02 4.926189015481E-01 -4.114620110042E-01 -1.610781392511E+00 -2.080419706194E-01 -3.918351632082E-01 -8.282709488358E-01 5.918203003812E-01
 -1.349229366825E-01 1.433213487616E-01 -2.435547380383E-01 -7.771701884526E-02 -1.864101933019E-02 9.827266636380E-02 1.136771332127E-01 3.842060663678E-02 -8.478014195756E-03 6.155094114055E-02 3.573204892168E-03 5.831222887772E-02 -4.216551701182E-01 3.531080205852E-01 1.352690085027E+00 1.562210303292E-01 2.641474048926E-01 6.271197124742E-01 5.029321289801E-01 2.899001028209E+00
 -4.605039140424E-02 4.773862382519E-02 -8.450718456846E-02 -6.441731503728E-02 -3.158459974742E-03 -2.951257049185E-02 4.297946203674E-02 1.216195661169E-02 -5.652856791552E-03 1.621194602701E-02 2.162289840165E-03 2.451296236119E-02 -1.667719514396E-01 1.822176471272E-01 5.643004088721E-01 2.671270543195E-02 1.435291988347E-01 2.509205149927E-01 4.894314445634E-01 2.961788560851E-01 1.773856815043E+00
 5.037817604079E-01 -6.016135221986E-01 1.075159607828E+00 5.057612082259E-01 5.656088610405E-02 -4.511782544193E-01 -6.007199096299E-01 -1.053211304710E-01 7.972921284077E-02 -2.618133221814E-01 -1.502213399519E-02 -3.714506575646E-01 1.276145007913E+00 -3.139405279659E-01 -3.963137982764E+00 -3.284426968939E-01 3.821799528998E+00 1.089401354164E+00 3.986829903011E-01 -2.625243783516E-01 1.954948518218E-01 3.924751653648E+01
 -1.079260416485E-01 1.139111354314E-01 -1.676285989518E-01 -4.481805361903E-02 -1.836685590644E-02 5.152126374844E-02 6.478141223919E-02 4.162860632641E-02 1.330443406076E-03 5.302853309086E-02 -3.026988392977E-02 6.220333032351E-02 -1.593717372347E-01 1.425243692235E-01 8.772584325211E-01 6.685663905196E-02 9.373658706179E-01 9.501975695922E-01 -1.621892156427E-01 5.178195565736E-03 6.613681760401E-02 3.908734484032E+00 9.296988219451E-01
 -3.486394818970E-01 4.456632958399E-01 -8.123292540878E-01 -4.362157593175E-01 -2.429734518402E-02 3.749455595656E-01 4.915729071873E-01 6.275141117292E-02 -7.562752790356E-02 1.882057084419E-01 5.228390397705E-02 2.525139819394E-01 -7.639976700985E-01 -3.380623532655E-01 2.025367258994E+00 2.023654506536E-01 -5.010010645492E+00 -2.384896750849E+00 -4.021025346160E-01 4.759619384747E-02 -2.563446556168E-01 -4.243141346759E+01 -4.793149251040E+00 5.020347599010E+01
 -1.047243558272E+00 1.094821384530E+00 -5.751770597623E-01 -7.554817749781E-01 -7.137222856489E-01 -3.130246915102E-01 -8.250604524392E-01 1.007972282569E+00 4.690359778712E-01 -7.127822985331E-01 -7.425991493692E-01 4.700246575269E-01 -4.470762632246E-01 2.550456612614E-01 1.276895724456E+00 -9.083848556808E-01 6.657124793769E-01 1.619457248901E+00 -1.074004779582E-01 7.718409595136E-02 4.060403251921E-02 -1.394312278523E+00 1.176159120453E-01 -5.793533939502E-01 5.564031088647E+00
 9.303554585123E-01 -9.788457846746E-01 3.056277065076E-01 -6.957090042947E-01 -7.276347803248E-01 -4.022956303587E-01 9.934881922934E-01 -1.011810983377E+00 -5.009103237761E-01 -7.527642192196E-01 -7.634786803613E-01 4.204761773987E-01 -6.088714034577E-02 -9.863091524406E-01 -6.920917673324E-01 -4.250867802459E-02 1.795605301009E-01 2.688455221018E-01 -3.230671432114E-02 -1.266155431111E+00 9.258330603209E-01 -1.689096648907E-01 -1.659064358434E-02 2.495369060026E-01 -4.098039937528E-01 5.922014440224E+00
 -5.005007759583E-01 5.315885483804E-01 -4.549125044338E-01 -5.020358324236E-01 -4.365524767257E-01 -1.171424063528E-01 6.321663424268E-01 -4.421383685866E-01 -2.631821703351E-01 4.898428707151E-01 4.043955078438E-01 -1.351169412715E-01 -6.100526270482E-01 -3.711480407907E-01 1.114275157324E+00 7.627140645345E-01 3.728462046097E-01 3.386083846817E-01 -1.295918856509E-01 1.019041332597E+00 -6.163594374713E-01 -1.288872977895E+00 9.966598592175E-02 -2.337701836904E-02 -9.223619870903E-04 1.465416261156E-01 3.411857225598E+00
 -2.264539856740E-01 2.000996132176E-01 -5.407299609579E-01 -1.819810705372E-01 -3.022047362800E-02 1.617733763861E-01 2.439524847666E-01 -2.656754536736E-02 -4.322174583199E-02 7.659609147731E-02 4.234333628254E-02 2.232745829442E-01 -2.832996167054E+00 6.967012323045E+00 1.022805256566E+01 6.551353557314E-01 5.006748103242E+00 4.675794224608E+00 -1.283220258786E-01 1.532315826010E-01 6.608344733203E-02 -1.815076309737E+00 -1.518694237534E-01 1.695851874498E+00 2.024299254930E-01 4.265189903628E-02 2.298241119920E-01 1.402689787334E+01
 2.529156389493E+00 -2.955263094941E+00 3.505376872770E+00 1.151303352767E+00 3.703646813382E-01 -1.301810321786E+00 -1.570131266619E+00 -1.314131434471E+00 -8.621867930102E-02 -1.186254865676E+00 1.525332254261E-01 -2.335006566829E-01 2.127331798580E+00 -8.508111921429E+00 -2.164709785982E+01 3.011990302038E+00 4.262825851239E+01 2.739105441831E+01 2.062613253665E+00 -1.258978243180E+00 -4.194967065969E-01 -1.039643852528E+01 -3.623537004992E+00 1.334850925638E+01 -1.087907622200E+00 1.514100230436E-01 -1.671580441882E+00 2.021825655753E+01 2.198088837907E+02
 1.037853190076E+00 -9.995165831789E-01 2.432267084209E+00 8.931695073870E-01 1.414682541535E-01 -8.020121693343E-01 -1.204940992457E+00 2.054014261478E-02 2.112028303144E-01 -4.149633047461E-01 -1.341365420358E-01 -9.786405326111E-01 1.232343004783E+01 -3.049294464305E+01 -4.486059459399E+01 -1.930382308056E+00 -1.003826421410E+01 -1.169176463360E+01 7.437936215842E-01 -7.636912313677E-01 -3.731616840059E-01 6.004500704801E+00 3.060293113671E-01 -5.106154264864E+00 -7.298937989399E-01 -2.979316230778E-01 -1.102503696394E+00 -1.059151899779E+01 -4.029122330945E+01 6.673959783500E+01
 -1.413156765483E+00 1.494473991243E+00 -2.488006600146E+00 -8.785173212922E-01 -1.759854080121E-01 8.128272944836E-01 1.090995431446E+00 3.894095670671E-01 -5.680847472449E-02 5.763918885835E-01 4.385256977330E-02 5.828390168647E-01 -1.696493788427E+01 -2.253236168568E+00 1.494453583317E+01 -1.872071147524E+00 -2.246645907089E+01 -1.394980055463E+01 -9.697276960851E-01 8.166356076210E-01 1.968519286622E-01 9.161172845957E-01 1.120320831484E+00 -2.471982210801E+00 9.431862152751E-01 -6.439816666369E-02 1.220752352812E+00 -2.413147711746E-01 2.443231067433E+01 -1.734562855023E+01 1.256518111169E+02
 7.010797085444E-01 -7.798781610227E-01 1.118997253684E+00 3.428860351735E-01 1.389296131632E-01 -4.615431153423E-01 -4.484135056858E-01 -2.700549194886E-01 -2.618267673973E-02 -2.681450219307E-01 -1.921907495643E-02 -1.493156975362E-01 -5.646189761402E+00 2.484084538038E+00 4.342614893251E+00 -5.280962905847E+00 -9.076835318491E+01 -6.955757433763E+01 4.565325335145E-01 -3.251983754178E-01 -1.137117005343E-01 -3.708916372915E+00 -9.548540741818E-01 4.812680643957E+00 -7.313541612103E-01 -1.859349807587E-01 -3.632283123957E-01 -1.131573659805E+01 -4.875392492743E+01 7.058998076855E+00 2.502452561143E+01 1.046073920550E+02
 7.525766280002E-02 -7.500331505840E-02 1.558197531534E-01 8.140258298605E-02 -1.029241919262E-02 -4.161043859960E-02 -6.008086557193E-02 -4.182334793373E-03 -3.490799019862E-03 -4.912480020418E-03 -4.163035453324E-02 -3.153438994343E-02 7.239548023432E+00 1.501356540723E+00 -3.491018832193E+00 -5.619236850868E+00 -8.153291199355E+01 -6.246798474976E+01 2.126169879440E-02 6.771508910654E-04 -1.018895416379E-01 4.359472502587E-02 6.097564959204E-02 -1.087695734413E-02 -1.364866544553E-01 -2.591276055521E-01 1.137926320373E-01 -2.585202591181E+00 -5.867074737096E+00 -5.445695548604E-02 9.894510554959E+01 7.529936591510E+01 1.555260709940E+02
 -3.853783175542E-01 3.938396316082E-01 -7.238116927013E-01 -2.453315564579E-01 -5.459369130404E-02 2.303124589843E-01 3.272717295458E-01 6.955571435092E-02 -3.134304341198E-02 1.525052642961E-01 2.798870224780E-02 2.053595252590E-01 -1.489514022060E+00 1.111339898085E+00 4.043919426771E+00 1.518434808517E-01 -9.920586180680E-01 2.363351588163E-01 -2.506887436200E-01 2.292232446590E-01 9.446875022814E-02 -9.586851921201E-01 1.224479371953E-01 6.789690763137E-01 2.315909795841E-01 3.253150568799E-02 3.218504108795E-01 1.176342481577E+00 1.510056317988E+00 -3.597813550981E+00 3.066136218066E+00 2.132813393174E+00 1.107632347860E+00 9.866576732620E+00
 -1.141641011374E+00 1.199846500554E+00 -2.110974444182E+00 -7.118635607586E-01 -1.699419661882E-01 7.174352902356E-01 9.777655806658E-01 2.679060888563E-01 -8.370826273728E-02 4.799955725862E-01 5.839600665994E-02 5.617677178405E-01 -3.406340987122E+00 2.891781674353E+00 1.106173704138E+01 4.274269707719E-01 -1.508166894085E-01 3.171679880933E+00 -8.077818734551E-01 6.793183373461E-01 2.587043813061E-01 -3.006690844609E+00 4.208575558818E-01 2.208889126183E+00 6.852275633617E-01 1.327972966318E-01 9.612963467408E-01 1.785812543447E+00 -3.106702963885E+00 -8.425845111722E+00 7.308487177838E+00 -3.898307881127E+00 4.063861266570E+00 7.314099288676E+00 2.514114797408E+01
 -2.641084997016E-01 2.693911024758E-01 -5.050218268273E-01 -1.759494305050E-01 -3.402249369806E-02 1.603063442556E-01 2.318902062087E-01 4.325280263893E-02 -2.450290925725E-02 1.055175064613E-01 1.962405016790E-02 1.488149531944E-01 -9.305268795346E-01 1.028653935159E+00 2.912868646643E+00 -4.284587396576E-02 2.840440910515E-01 1.291367176389E-01 -1.734103029419E-01 1.489272462163E-01 6.077962882142E-02 -8.274608865922E-01 6.892925467214E-02 7.032016035321E-01 1.551245366053E-01 4.075932175196E-02 2.266706525266E-01 9.647892868290E-01 1.183668634987E+00 -2.616912069958E+00 8.343940336692E-01 2.469560169515E+00 -1.710376619234E+00 3.286442031633E+00 2.575640949538E+00 1.318798382476E+01
 1.735738802237E+00 -1.747018867221E+00 3.440848028882E+00 1.156395201113E+00 2.421232247005E-01 -1.123061461848E+00 -1.589386150297E+00 -2.586417821414E-01 1.867034147937E-01 -6.846872898937E-01 -1.239027984335E-01 -1.103839292906E+00 3.653983857083E+00 -1.677465164870E+00 -1.229124933320E+01 -2.782806306866E-01 1.072974921120E+01 3.010408910866E+00 1.198514025278E+00 -1.025406482305E+00 -4.642958043421E-01 2.163323975367E-01 -9.902882524799E-01 2.016098245601E+00 -1.044086976743E+00 -2.042695989685E-01 -1.532108783242E+00 -5.472016679699E+00 -3.239321841706E+01 1.787259691769E+01 2.980684784184E+00 -1.029149533370E+01 8.290285562841E-01 -7.266799976414E+00 -8.635190652345E+00 -4.690435816323E+00 9.392862966662E+01
 5.619522894322E-01 -6.057558367017E-01 1.158175401640E+00 4.413655720408E-01 8.189460252702E-02 -4.286668398359E-01 -6.107651826086E-01 -1.070249163304E-01 8.707614268775E-02 -2.607655207666E-01 -1.726518829415E-02 -3.939123209352E-01 1.601583509136E+00 -8.990285339541E-01 -4.667048299372E+00 -4.543133577503E-01 2.915234837598E+00 4.276990671143E-01 4.700974294681E-01 -3.890892361608E-01 -2.118856396397E-01 5.656020058096E-01 -3.299284764572E-01 2.096729596455E-01 -3.292007714543E-01 -1.317143898168E-01 -5.475923374844E-01 -1.562433133152E+00 -8.834442912387E+00 6.079476099615E+00 1.450220743372E-01 -2.776004452165E+00 -1.987827713796E-01 -1.898360573062E+00 -3.315906246014E+00 -1.156203215792E+00 1.130080427147E+01 6.741070102577E+01
 -1.549685796532E-01 1.371792482796E-01 -4.170538838513E-01 -1.495691980940E-01 -2.015873685008E-02 1.378102789847E-01 2.172549948815E-01 -3.007695703820E-02 -4.937909220449E-02 5.655312889773E-02 2.072197223879E-02 2.089532558295E-01 6.286237816050E-02 -5.438966765052E-01 2.181509145846E-02 -1.242664284278E-01 -4.511447907914E+00 -2.844196024503E+00 -1.206196160332E-01 1.170325811399E-01 8.664671775757E-02 9.109949569415E-01 1.530034353255E-01 -1.408242147955E+00 9.321090815257E-02 5.020029717210E-02 1.848834761573E-01 1.566886319619E+00 1.639168674645E+01 -4.098673965627E+00 -3.633297626690E+00 4.415098254290E+00 -4.741011982106E-01 -2.064236524621E+00 -5.327037793130E-02 -2.165545189871E+00 -2.584239877399E+01 -1.376955129411E+01 2.022497416845E+01
 1.158692646005E+00 -1.208726969284E+00 2.266317898038E+00 7.931402573031E-01 1.718348199942E-01 -7.805507821189E-01 -1.088727959593E+00 -2.195363721989E-01 1.235799596024E-01 -4.910958025859E-01 -6.720715885260E-02 -6.894786835926E-01 3.807814733773E+00 -2.919881454426E+00 -1.135667519370E+01 -7.249668884465E-01 2.109806881215E-01 -3.401896512839E+00 8.559020289866E-01 -7.295921105140E-01 -3.178800364936E-01 2.694056950938E+00 -4.111295688852E-01 -1.654921347584E+00 -6.874971954550E-01 -2.030521799508E-01 -1.013722514578E+00 -5.154818329317E+00 4.746638954599E+00 6.170892988805E+00 -4.184917900995E+00 -7.105597337519E-01 5.613701489209E-01 -2.283385567081E+00 -6.252411136824E+00 -1.740561213146E+00 6.145406927189E+00 1.077210747772E+00 7.438276717206E-01 3.723690137333E+01
 1.990586353820E-01 -2.019072829289E-01 4.233248105454E-01 1.498314453301E-01 2.941358478688E-02 -1.452577818426E-01 -2.089787102484E-01 -2.147529050486E-02 3.041082273779E-02 -8.327764319551E-02 -1.616754309674E-02 -1.499448574062E-01 8.315344947457E-01 -8.589690040146E-01 -2.378361007520E+00 -1.333629738542E-01 -8.221315127389E-03 -6.636755163380E-01 1.499827305878E-01 -1.342789233184E-01 -6.658561417074E-02 5.394691173675E-01 -4.193345992351E-02 -3.303279386730E-01 -1.152230598032E-01 -5.221168521101E-02 -1.861172606121E-01 1.762945074473E+00 -2.481502940885E+00 4.791949812915E+00 6.522480095880E-01 2.372854270471E-01 1.217937780758E+00 -4.980775539040E-01 -1.164156719060E+00 -4.109806059259E-01 -3.687617999892E-01 -4.000718890785E+00 1.177265834062E+00 9.734638202136E+00 1.020137377011E+01
 6.419899038197E-01 -6.658712745548E-01 1.282388274440E+00 4.526994001599E-01 9.522885278971E-02 -4.417121859635E-01 -6.204385454135E-01 -1.086975829861E-01 7.519228183394E-02 -2.718539320248E-01 -4.176174817572E-02 -4.043564712387E-01 2.255573470181E+00 -1.992200993119E+00 -6.915447978172E+00 -5.064460698382E-01 -9.636630886187E-01 -2.752445046011E+00 4.736467221405E-01 -4.137089588286E-01 -1.812511582708E-01 1.917646276385E+00 -1.681476906557E-01 -1.374888222560E+00 -3.881772010644E-01 -1.267938177539E-01 -5.748108427822E-01 -4.525928146092E+00 2.073073115742E-01 3.827838196014E+00 -2.994868503669E+00 2.924247781273E-01 8.896942627009E-01 -1.347033483524E+00 -3.691370082029E+00 -1.027058918845E+00 5.454174830118E+00 3.434407596835E+00 -6.850408945786E-01 2.040079401287E+01 1.736221726059E+00 1.340595725694E+01
 1.152321264977E-01 -1.244548826233E-01 8.514482383673E-02 -1.000312103179E-02 2.284169857631E-02 -4.048115599524E-02 4.548226904196E-02 -7.321409318119E-02 -4.813341517757E-02 -2.370968316649E-02 1.071798573108E-02 7.415700091557E-02 -2.466132561412E+00 9.407980323461E-01 5.388164567269E+00 -3.909978808831E-01 7.620450879830E+00 4.847341368881E+00 1.233146527063E-02 -1.985092567241E-02 1.325047472599E-01 -2.257406229563E+00 -3.879464749481E-01 2.592654727530E+00 -2.824806186094E-01 2.108405831079E-01 -1.117501775553E-01 -7.614907667491E+00 -5.699692224204E+01 1.389284343211E+01 -1.041909890432E+02 -3.822081733795E+00 -9.892457814173E+01 -4.230944724074E+00 -5.701804582157E+00 -1.985268281570E-01 -6.716873478764E+00 -3.901800108338E-01 1.314845419660E-01 -2.861605384520E+01 -1.052427157351E+01 -1.429797877495E+01 1.515016807302E+02
 -6.479348125624E-01 9.820582882723E-01 6.540387795385E-02 9.402701141200E-02 -1.025573779914E-01 9.259635040973E-02 -1.167049515505E-01 9.059247390709E-01 2.548268119902E-01 3.913047981023E-01 -2.498194074154E-01 -7.873661952390E-01 8.117170844676E+00 -1.537971772307E+01 -1.750756070851E+01 -5.746159955023E+00 -4.138131254362E+01 -3.367757828664E+01 -6.795674231786E-01 1.092093030722E-01 -5.392636687187E-02 1.408912692120E+01 2.890520409768E+00 -1.538652091083E+01 -6.751566330599E-03 -3.926698221918E-01 3.655249701963E-02 -2.475033817103E+01 -1.941222411804E+02 7.849401782762E+01 -3.386557229684E+01 3.699381566518E+01 6.425188333636E+00 -1.051234249999E+01 -1.808577262781E+01 -3.410116506073E+00 4.336599829818E+01 1.060456286989E+01 -1.421406418732E+01 -9.648722108267E-01 -9.519976032574E-01 4.272857613417E+00 6.485109478536E+01 2.369992979848E+02
 5.677376795533E-01 -7.283549098624E-01 4.708438612410E-01 1.138502527490E-01 9.502510739155E-02 -2.310971023021E-01 -1.435101223620E-01 -4.670977201168E-01 -1.104141569886E-01 -2.751616788840E-01 1.060730129617E-01 2.418033033348E-01 -2.201430317147E+00 8.513541898680E+00 -1.306614404482E+00 3.623868205545E-02 2.450472223558E+01 1.626772984799E+01 4.672571020290E-01 -2.072133341656E-01 6.530814733523E-02 -7.213005325071E+00 -1.644889815252E+00 8.283594578468E+00 -3.587326717398E-01 2.930563474570E-01 -3.213574740886E-01 3.949876316240E+00 3.306920127716E+01 -2.007620848220E+01 -7.412217866961E+01 -2.147402683513E+01 -8.889756230967E+01 4.922598148429E-01 1.999301919956E+00 8.896575341060E-01 -2.288622618480E+01 -4.314222697482E+00 6.129275464583E+00 -1.882184891496E+01 -7.015996343864E+00 -1.148319051806E+01 8.855486587479E+01 -4.127816218491E+01 1.138920370935E+02
 -5.513728636657E-01 6.567934061828E-01 -1.156523264188E+00 -5.376598324895E-01 -6.050046021949E-02 4.850333804808E-01 6.443583776875E-01 1.236554584335E-01 -8.281314946287E-02 2.844138769845E-01 2.026103265518E-02 3.762508776196E-01 -1.654654698192E+00 8.127990835482E-01 4.507005930145E+00 3.867365273968E-01 -3.551281252810E+00 -7.126115823035E-01 -8.030959753306E-01 -4.005599719638E-01 -6.854205353384E-01 -3.829824664191E+01 -3.933675689505E+00 4.347595526921E+01 3.013850917434E-01 2.250986776453E-01 6.019024687155E-01 1.913254490104E+00 8.910653246877E+00 -6.249166284514E+00 -5.699348269133E-01 3.563656966909E+00 1.322771073095E-02 -1.218910601756E+00 2.969146413949E+00 1.859022637502E+00 -4.699655929232E-01 -8.733098973097E-01 -7.659655653832E-01 -2.994836192769E+00 -6.160426174289E-01 -2.105871911648E+00 4.024720664212E-01 -1.114037405825E+01 8.002837568490E+00 4.325024398928E+01
 3.017955108134E-01 -3.195620380089E-01 5.254851672049E-01 1.651090414436E-01 4.717201850711E-02 -1.785148623486E-01 -2.371571494809E-01 -9.247420627287E-02 1.307695795537E-02 -1.292923205780E-01 -8.474981715328E-03 -1.179668786125E-01 1.024919503879E+00 -1.422082280132E+00 -2.493086107979E+00 -1.899618174317E-01 -1.270890995130E+00 -1.770672242336E+00 -3.589469574831E-01 -1.589676124127E+00 -1.302528815343E+00 -3.550057084964E+00 -9.083827176936E-01 4.508027909322E+00 -1.899159223768E-01 -9.676276482685E-03 -2.340691657005E-01 -1.018988430207E-01 4.088884434202E+00 1.129317762596E+00 -2.227518771960E+00 1.249906353437E+00 -1.476907512934E-01 -8.382358471095E-01 -1.451493682316E+00 -1.614979006611E-01 2.528195243222E+00 1.062083978193E+00 -4.119797474497E-01 1.554701138584E+00 2.364690710647E-01 8.304306248000E-01 2.449126716444E+00 -4.860729496289E+00 4.080597836138E-02 2.429674350002E+00 1.040994986249E+01
 4.860020106056E-01 -5.919090169025E-01 1.060296215259E+00 5.196795520077E-01 4.692107335454E-02 -4.604859942787E-01 -6.117096674501E-01 -9.786871855650E-02 8.571413947420E-02 -2.531595904272E-01 -1.727031058113E-02 -3.690471823245E-01 1.122714277421E+00 1.714929242937E-01 -3.802398138889E+00 -3.158174819243E-01 4.489290419319E+00 1.603023898238E+00 3.941372408796E-03 -1.315931887181E+00 -8.264297625394E-01 4.311966949276E+01 4.647539786283E+00 -4.958917660010E+01 -2.363587788132E-01 -2.397268334759E-01 -6.076074432489E-01 -2.068017223893E+00 -1.237342396792E+01 6.340766696569E+00 1.322157178796E+00 -4.238167972746E+00 -4.698529061780E-02 -6.393660924427E-03 -2.846437522272E+00 -1.366372688367E+00 2.010591814231E-01 4.525143059256E-01 -2.760179218254E-01 2.583410905543E+00 5.028025686594E-01 1.902425963821E+00 -9.682962452335E-01 1.419374222725E+01 -9.411121753117E+00 -4.545572307248E+01 -4.685216646985E+00 5.554210408595E+01
 5.446027169874E-01 -5.780574075057E-01 9.941430610263E-01 3.430197035478E-01 7.994545223418E-02 -3.405118110845E-01 -4.623225986073E-01 -1.345327134922E-01 3.794252848947E-02 -2.318502488223E-01 -2.498096570475E-02 -2.571685094386E-01 1.738347816133E+00 -1.476408630126E+00 -5.438591398284E+00 -3.555128045204E-01 -1.020816737290E+00 -2.321271648344E+00 3.923305529871E-01 -3.213479856158E-01 -1.185547444830E-01 1.476134919680E+00 -2.574726258536E-01 -1.077005073829E+00 -3.320533943866E-01 -5.832651695195E-02 -4.537523199714E-01 -8.884366666173E-01 2.479302440249E+00 3.804880399786E+00 -2.844487444056E+00 9.433368015449E-01 2.029196770950E-01 -1.343810802196E+00 -2.491293437350E+00 -7.539918394650E-01 4.710396091121E+00 2.197084458055E+00 -4.053253092343E-01 3.029596618845E+00 5.784095622025E-01 1.746212749958E+00 -1.416546577712E-01 2.228256809974E+00 -4.122393243776E-01 -1.681206811120E+00 3.861757026746E-01 1.703454466642E+00 4.126542669907E+00
 -6.160216832253E-01 6.559117558401E-01 -1.126530406499E+00 -3.890148123410E-01 -9.162473124821E-02 3.889892544033E-01 5.257971482143E-01 1.572785737928E-01 -4.247784836590E-02 2.647086705353E-01 2.631439975257E-02 2.897432455930E-01 -1.848413419227E+00 1.559908706766E+00 5.946834621719E+00 3.872950647145E-01 9.731403459990E-01 2.496121056970E+00 -4.445906202175E-01 3.682184703025E-01 1.378169966323E-01 -1.619786903265E+00 2.715178045431E-01 1.176919260130E+00 3.724302387796E-01 7.106385802035E-02 5.153604496671E-01 9.300619264859E-01 -3.006413497032E+00 -4.047035381623E+00 3.019475651600E+00 -9.041064740082E-01 -1.705159032494E-01 1.391294891507E+00 2.829070660602E+00 8.061161837832E-01 -3.890966422754E+00 -6.900676550930E+00 -2.213879695037E+00 -3.334815909869E+00 -6.325865148589E-01 -1.951244813503E+00 2.506301369856E-01 -2.142693243316E+00 4.130265281957E-01 1.453143111736E+00 -4.621708469133E+00 1.061741019620E+00 -2.810590814038E+00 1.098754745340E+01
 -5.237905438445E-01 5.552555595839E-01 -9.604297239739E-01 -3.314653266260E-01 -7.773847335457E-02 3.281691032115E-01 4.472188652808E-01 1.276047088582E-01 -3.735266170895E-02 2.228095895559E-01 2.395211086659E-02 2.497355813734E-01 -1.670954871557E+00 1.471200501161E+00 5.299577433004E+00 3.661400646463E-01 1.058864298556E+00 2.302306977852E+00 -3.723556825467E-01 3.137546363424E-01 1.145977999052E-01 -1.457791919073E+00 2.275849625649E-01 1.089210049418E+00 3.167852383517E-01 6.281820870248E-02 4.369486024524E-01 8.381434641377E-01 -2.609941395962E+00 -3.689941744546E+00 2.799307499036E+00 -9.606036131834E-01 -1.612914841593E-01 8.774578613543E-01 2.756016102473E+00 6.581033503148E-01 -3.785412521964E+00 -4.107257032272E+00 -1.069726762386E+00 -2.986345258612E+00 -5.730463960027E-01 -1.731085139663E+00 1.329901011608E-01 -1.978299215629E+00 3.165608441541E-01 1.826361218239E+00 1.966536184008E+00 -3.273463439545E+00 -4.448502420182E+00 2.423412457725E+00 7.802003968011E+00
 -1.134342700437E+00 1.180513643884E+00 -2.220108350980E+00 -7.775645017055E-01 -1.614639412833E-01 7.608089628756E-01 1.065968124540E+00 2.159179570255E-01 -1.228513970345E-01 4.778342482978E-01 5.965022324235E-02 6.875581661011E-01 -2.802366634156E+00 1.611132372796E+00 8.905631161095E+00 5.389758512898E-01 -4.108657217554E+00 2.454960087551E-01 -8.421914302647E-01 7.020033519102E-01 3.181516134569E-01 -9.337620268376E-01 6.237574180145E-01 -3.927288136086E-01 6.766125522269E-01 1.632987540751E-01 1.009087285531E+00 3.023233962837E+00 1.339547712156E+01 -1.038195865244E+01 -3.647511408306E-01 3.963795104077E+00 -1.125218532788E+00 2.289235632411E+00 5.680869167268E+00 9.511086711842E-01 -3.461862103865E+01 -3.786003953729E+01 1.725808715172E+01 -5.187894768207E+00 -1.136196613920E+00 -3.615284740412E+00 3.339551500371E+00 -2.105127286934E+01 1.090017493274E+01 1.225936618704E+00 -1.753832223624E+00 -8.234300775185E-01 -5.356858359550E+00 4.010827155874E+00 5.360568569912E+00 3.769089049759E+01
 -1.470187339866E+00 1.545930403657E+00 -2.857986227257E+00 -1.008199592183E+00 -2.120033227770E-01 9.944192935881E-01 1.381269647227E+00 3.079406343089E-01 -1.535546133978E-01 6.318978790307E-01 6.720349693489E-02 8.646707787789E-01 -3.627846623188E+00 2.087590017975E+00 1.165351499058E+01 7.359678079681E-01 -4.977055952237E+00 5.710154543721E-01 -1.114277795135E+00 9.194726778157E-01 4.092492448237E-01 -1.557895691456E+00 8.062893152700E-01 -7.688649881194E-02 8.757010888071E-01 2.188782916531E-01 1.312141723377E+00 3.511911197196E+00 1.300977283729E+01 -1.236855795326E+01 9.095621321481E-01 4.780942698518E+00 -3.943018904336E-01 2.931226547704E+00 6.882581865718E+00 2.005881170347E+00 -4.040201590048E+01 -4.365142176891E+01 1.985946718178E+01 -6.846077647066E+00 -1.364307225844E+00 -4.585531953106E+00 3.424914274720E+00 -2.309638149831E+01 1.153549340768E+01 1.958910905880E+00 -2.293234501477E+00 -1.435246317277E+00 -3.135296731523E+00 3.876858941269E+00 2.455859971480E+00 3.839072713775E+01 5.429196474545E+01
 1.173221955510E+00 -1.234584151801E+00 2.239958401776E+00 7.857503555399E-01 1.718529849432E-01 -7.713904379651E-01 -1.070678605181E+00 -2.511124195770E-01 1.113659808108E-01 -5.009870397035E-01 -5.702384160550E-02 -6.484583032969E-01 3.422617075283E+00 -2.592214336641E+00 -1.079065282913E+01 -6.868278890644E-01 1.416238930194E+00 -2.398785658675E+00 8.668581360445E-01 -7.233950990883E-01 -3.047844398027E-01 2.294384816294E+00 -5.168961345116E-01 -1.225428630849E+00 -7.057568666211E-01 -1.688776097986E-01 -1.026166324546E+00 -2.618332355111E+00 -4.930693922116E+00 9.994691066439E+00 -3.048277806789E+00 -1.479291076606E+00 4.242276252613E-01 -2.536793099320E+00 -5.509861987872E+00 -2.526602364068E+00 2.325797020487E+01 2.256668648939E+01 -9.994968357451E+00 6.315826756241E+00 1.315989514196E+00 3.995256571482E+00 -1.936077615289E+00 1.422901586640E+01 -6.446347871660E+00 -2.567561098028E+00 1.654522869107E+00 2.243744835122E+00 5.739830111086E+00 -4.320981205683E+00 -6.018933559553E+00 -2.447073912827E+01 -2.656747878027E+01 1.975348706720E+01