#BIOSYM hessian 1
@Type: Hessian Update
@Units
 distance: 	A
 energy: 	Kcal/Mol
#header
@natom 4

#label
L1      L2      L3      L4

#element
Li Li Li Li

#matrix
12
 1.549123208391E+03
 -2.278712377011E+02 2.170767560246E+03
 -6.519268467766E-01 1.744214712527E+00 2.241611100809E+03
 6.173063266013E+02 2.045365140521E+02 1.045659536374E+00 1.690238124050E+03
 -1.415942095733E+02 -4.134220061891E+01 1.938129209162E+00 1.276351016346E+02 2.217505975597E+03
 6.151593812446E+01 1.866334360482E+01 -5.686369598334E-01 -5.527927939179E+01 1.089192104331E+01 2.235888700451E+03
 -3.925925525468E+01 -1.179531800445E+01 4.064796374717E-01 3.529709748975E+01 -6.853840761703E+00 3.130260590998E+00 2.238882229178E+03
 1.905436088347E+02 5.767390692741E+01 -1.819288113629E+00 -1.712628081936E+02 3.356752902648E+01 -1.530753140303E+01 9.666129436764E+00 2.193581080363E+03
 -5.253939307871E+02 -1.628280333684E+02 3.517925007041E+00 4.713111766547E+02 -9.665779655923E+01 4.343734801338E+01 -2.750529762383E+01 1.342427890166E+02 1.862830171536E+03
 1.136758409834E+02 3.513004165347E+01 -8.002123270689E-01 -1.019954274202E+02 2.081294870047E+01 -9.366919323662E+00 5.926049307763E+00 -2.894693007790E+01 8.158805175627E+01 2.223239657850E+03
 1.789218384410E+02 5.374685416591E+01 -1.863055808459E+00 -1.609088074945E+02 3.111481671514E+01 -1.424773324488E+01 8.983029329253E+00 -4.397639559497E+01 1.252430409099E+02 -2.699606027576E+01 2.199960845435E+03
 4.645299195109E+02 1.424204750504E+02 -3.714268135983E+00 -4.170775568008E+02 8.382774630592E+01 -3.791129078301E+01 2.396855739522E+01 -1.171159694991E+02 3.310606761633E+02 -7.142092010527E+01 -1.091322518558E+02 1.951411003478E+03

