#BIOSYM hessian 1
@Type: Hessian Update
@Units
 distance: 	A
 energy: 	Kcal/Mol
#header
@natom 19

#label
L1      L2      L3      L4      L5      L6      L7      L8      L9      L10     L11     L12     L13     L14     L15     L16     L17     L18     L19

#element
Li Li Li Li Li Li Li Li Li Li Li Li Li Li Li Li Li Li Li

#matrix
57
 2.834842129115E+01
 -1.667625500522E-01 3.198969128210E+01
 -1.264887207281E+01 -1.179251309946E+00 4.816964083447E+01
 5.026523611577E+00 -9.861010784468E-01 -1.125497358811E+01 3.131456374850E+01
 -1.707490523900E+00 -1.845188964683E+00 2.951399227475E+00 8.028018577945E+00 3.292110652277E+01
 -5.757411282246E+00 1.174696175749E+00 1.020588933494E+01 -9.681650522263E+00 -6.011173083367E+00 2.003332018838E+01
 -3.735036413009E-01 4.008904344226E+00 6.379149706285E+00 -2.218222053408E+00 2.081159330284E+01 -3.917058055204E+00 1.803425749977E+02
 -6.701247361481E-03 6.308928679201E+00 -8.046078612761E-02 2.554949456124E-01 1.934764989725E+01 2.172504549755E+00 1.736792368106E+02 2.425971451297E+02
 -2.514997757734E+00 -2.024847303597E-01 -1.128748895187E+01 -3.336514088287E+00 -1.469484187287E+01 2.135792183017E+00 -1.277142856783E+02 -1.284965867916E+02 1.387142987921E+02
 -1.954982681382E+00 6.804925622723E+00 6.242649439877E+00 6.640096276981E-01 1.785465079154E+01 -5.091627922660E-01 1.666073071487E+02 1.877288386435E+02 -1.321150123506E+02 1.998811603533E+02
 2.247110743080E+00 -1.297135074229E-01 3.908665389497E+00 1.161875329374E+00 6.815204210927E+00 -6.250387341772E-01 7.265563027279E+01 7.989997394577E+01 -5.541389510317E+01 7.996700082116E+01 5.234856146213E+01
 9.632088411101E-01 8.653756183622E+00 3.136539084737E+00 5.235713087594E+00 2.291026778675E+01 -4.334190194777E-01 2.028962816439E+02 2.327409110524E+02 -1.585896161196E+02 2.203793701829E+02 9.498041627122E+01 2.995793792353E+02
 -1.110366284852E+00 2.839517514128E+00 -5.721670410231E+00 1.534379525229E+00 -2.279952319667E+00 -9.792028269908E-01 -2.304121244690E+00 -2.216058888669E+00 4.956111401282E+00 -5.832815294646E+00 -1.798478598073E+00 5.383702220128E-01 2.114651890228E+01
 1.955301689434E+00 -5.188794067847E-01 2.460196822216E+00 9.555145659013E-01 -1.013001097369E+00 -6.244581266559E-01 -6.368332425272E-01 9.238068389240E-02 -8.704332681368E-01 -6.182999214207E-01 -8.764845894902E-01 1.246507425868E+00 1.875119585865E+00 2.216338722549E+01
 -1.401065933019E+00 1.121916791034E+00 -6.259892520084E+00 7.167484128385E-01 -9.422812028847E-01 4.332669081310E-01 2.064494547301E+00 1.181612947423E+00 -3.190502339953E+00 4.750320557614E+00 1.524175950292E-01 -1.376241592459E+00 1.683245405149E+00 1.221129212551E+01 3.127651427509E+01
 7.083900541920E-02 -2.061403273725E+00 3.630333560160E-01 -2.203596522197E+00 -1.460067609064E+00 -5.795298737246E-01 8.018614830483E-01 1.608265877494E+00 -1.055695820088E+00 -3.670246199110E-01 9.899686660712E-02 6.132480546362E-01 -9.637462280833E+00 -2.815935751200E+00 -1.925344029033E+00 2.881106130641E+01
 -2.570369073323E+00 -6.164657967484E+00 3.099432538327E+00 1.651935781424E+00 -4.072157751839E+00 -1.649707890710E+00 -1.633911043695E+00 -2.561188939064E+00 9.447735123016E-02 -4.269866506314E+00 -5.901896879872E-01 -4.484173620738E+00 -2.221651549783E+00 -5.825104497612E-01 9.114549842803E-01 -2.788170401622E+00 1.617899062654E+01
 1.836312192122E+00 1.747244934538E+00 -4.609870654675E+00 1.646372190900E+00 -2.267614442449E+00 -4.116926587087E+00 2.890197706959E+00 3.980885241887E+00 4.940006142133E-01 4.506267140552E-01 -1.799979053230E-01 5.503192214086E+00 -3.301873331191E+00 -1.018109562835E+00 -3.755802800580E+00 -3.906764173534E+00 -1.236584426948E+00 2.491563005569E+01
 -7.537291278790E-01 -2.639732022980E+00 3.002064989088E+00 5.130263719298E-01 5.537590955476E-01 2.202574556385E+00 -4.019864948311E+00 -3.377161573555E+00 -6.607410297424E-01 -1.182402742813E+00 6.375344103041E-01 -5.660813282997E+00 -1.656882368695E+00 2.709795531509E-01 8.199131318149E-01 -3.851298504023E+00 4.696106189938E+00 -4.291916451548E+00 1.415808444067E+01
 -4.502757983772E-01 -9.267886248166E-01 1.944387078115E+00 2.842578481095E-01 -7.801957428584E-01 1.582511700299E-01 1.035796068390E+00 -2.869952537715E+00 -2.492892190565E+00 -1.388505541339E+00 -9.305803874433E-01 2.154481523805E-01 -1.546738362850E+00 -6.033708115898E+00 1.258343368838E+00 4.049321754515E+00 -4.724585939267E+00 1.375426657607E+00 3.798510973066E-01 2.764766261904E+01
 4.939003891451E-01 -6.368888048845E-01 -5.269804601312E-01 1.669119819082E+00 3.794339902273E-01 -3.942506558437E+00 1.517754599059E+00 -5.322590702091E+00 -4.435853187182E+00 -2.407847753945E+00 -2.335844735515E-01 -2.462006540164E-01 5.788874332074E-01 -2.125683004708E+00 -6.131793677494E-01 -1.582064032513E+00 5.891713403937E-01 -1.035616195969E+00 -6.524984907542E+00 -1.042613019060E+01 2.948744389303E+01
 1.289732588290E+00 1.069716736032E+00 -1.617676514214E+00 -2.119558098458E+00 8.830397466564E-01 -1.948176946310E+00 -3.255634080170E+00 -4.736623784219E+00 -1.600024469877E+00 -9.722110000644E-01 -3.138831142167E+00 -1.041444227429E-01 -3.231508296057E+00 2.562296347819E+00 2.612718203062E+00 -7.614487766172E-01 -8.170231475902E-02 3.654011201331E-01 -2.221748958524E+00 -2.518096344532E+00 1.945000035011E+00 2.253117922728E+01
 2.402942332053E+00 7.580863503961E-01 6.202562530208E-01 8.481930778321E-02 9.948194576331E-01 -9.147847493867E-01 5.799123184449E+00 2.294598485093E+00 -1.312630757326E+01 8.814770538583E+00 -3.618401519854E+00 1.271955565019E+01 2.480492893709E+00 -2.066022760951E+00 -1.285455036384E+00 2.092788276190E+00 -1.775604367151E+00 3.505821229269E-01 -5.563781983640E+00 -2.226381501245E+00 1.271864299870E+00 1.795853416388E+00 1.823273928952E+01
 3.438438344992E+00 -1.192289421665E-01 -2.790859630752E+00 4.136380608113E-01 -1.072328849611E+00 -1.016990701030E+00 8.266569594846E-01 2.089138470260E+00 -7.768860685685E+00 4.150498980436E+00 5.462799362573E+00 2.184546835567E+00 1.866417737717E+00 -2.241669768281E-01 -5.396543938583E-01 8.493045492404E-01 -7.263019087408E-04 9.875238570753E-01 2.263010121433E+00 -7.962795799526E-03 -2.950094073000E-01 5.512773882948E+00 1.288297826053E+00 2.323970079195E+01
 -5.381982841000E+00 -1.447443063724E+00 3.256167311197E+00 2.238392327737E-01 1.217220052999E+00 2.298457222584E+00 -7.342442485655E+00 -2.343825478573E+00 8.340623955965E+00 -4.057265685025E+00 -1.261668231738E+00 -4.630283469298E+00 3.860945086721E-01 -2.086653233732E+00 -7.467920887473E+00 -1.180873932212E+01 2.655012346907E+00 8.954528629440E+00 -1.414654463669E+00 -2.944853609955E+00 2.439733910226E+00 -1.392247638414E+01 3.670369714193E+00 -7.123608648848E+00 4.928857857515E+01
 2.286647277560E+00 -4.306993530223E+00 -5.784246524394E+00 -3.505813906629E+00 1.254267915610E+00 -1.166545959106E+00 1.823763077564E+01 2.461055517379E+01 -8.972392627600E+00 2.195377806600E+01 9.937353407314E+00 2.789099366265E+01 -8.656419920393E-01 -9.358184835809E+00 -1.843890897189E+01 1.438103915079E+00 -1.317775883911E+00 2.425939671151E+00 -2.972583557279E+00 -1.337412145170E+01 1.413804815100E+01 1.339645109550E+00 1.366477819334E-01 2.523108982074E+00 5.258262855167E+00 5.914661173966E+01
 9.679910488476E+00 6.539470183636E+00 -1.662326161971E+01 6.423321511027E+00 -2.496565709435E+00 -1.335272953802E+01 1.434760367799E+01 1.539072888800E+01 -9.751534926244E+00 1.528513564645E+01 7.783850886436E+00 2.200684728070E+01 -1.580392304029E+00 -1.278166204262E+01 -1.759933250676E+01 7.785564480164E+00 -7.480707071213E-01 1.540927620148E+00 1.172605057992E+00 1.233853413824E+01 -1.566771175215E+01 -4.506830079102E+00 2.313991580203E+00 -2.984119355705E+00 -1.419033283326E+01 -5.797144894862E-01 1.025940945585E+02
 1.044297103611E+00 -1.487169706195E+00 2.673649783733E+00 4.306208533358E+00 3.387606268491E+00 3.105119329519E-01 1.159544723313E+01 1.304177889666E+01 -1.525346591671E+01 1.381526547534E+01 3.690322309819E+00 1.715927246611E+01 1.633018902001E+00 4.378413953815E-01 -5.749695727109E-01 -1.023083639660E+00 -7.272348303168E-01 -4.500053866714E-01 2.064564396448E+00 -2.239080112674E-01 1.347528043488E-01 -3.423916429246E+00 3.074228168552E+00 -9.139080207692E-01 1.759046179896E+00 5.912874731113E-01 5.503970451807E+00 3.279614907788E+01
 3.334350344743E-01 -6.035841434923E-01 3.728718840821E+00 1.160155407966E+00 2.183616861285E+00 -2.605792666371E-01 -5.638570919969E+00 -1.758620543069E+01 6.367201880561E-01 -9.921663770268E+00 -5.189515428880E+00 -1.216104333411E+01 8.978959707126E-01 6.974312905351E-02 8.437024227204E-01 1.712982892821E+00 -8.246147508140E-01 -1.929590265600E+00 2.552166856401E+00 8.409135747723E-01 -9.366386337340E-01 -2.306373669703E+00 9.820093667112E-01 -1.373530774503E+00 -6.449746578921E+00 -4.871839323682E+00 -1.741152651772E+00 -1.925253077020E+00 1.987283752974E+01
 1.863765468674E-01 -2.765614885458E+00 -6.903798694590E+00 4.595589881175E+00 1.894581327398E+00 -1.900644082343E-01 -5.538257670784E+00 -5.294375939142E+00 7.184632979269E+00 -5.970629540479E+00 -2.246777772548E+00 -6.222546513337E+00 8.294441910671E-01 -8.162752147932E-01 -1.111669852802E+00 -9.394574509773E-01 1.275415625181E+00 8.121733731833E-01 -2.102710151817E-02 1.469779136631E+00 -5.033636283433E-01 -1.361974154316E+00 2.184047383249E-01 -7.428538026951E-01 5.211430332872E+00 2.752093566286E+00 2.022590144688E+00 8.099548419347E+00 -7.706140947035E+00 3.393861862428E+01
 -5.224908685801E+00 -2.414123463985E+00 2.960203124620E+00 6.971598002083E-01 -4.315063451960E-01 1.287561759175E-01 -4.940328638209E+00 -5.044378448384E+00 5.339893425699E+00 -7.156710593946E+00 3.565887922914E-01 -4.330184849201E+00 7.281246922257E-02 -2.219987262018E-01 -1.137911652707E+00 4.062058290288E-01 1.109831003343E-01 5.246369057139E-01 -9.234226621179E-01 6.959340780495E-02 5.764651253625E-01 8.769634930885E-01 5.764668607818E-01 -7.650898203210E-01 4.905578401436E-01 -1.554638417466E+00 6.209353891855E-01 -3.707248149123E+00 -2.556477767085E+00 -9.106585078401E-02 1.634053483179E+01
 -3.206303476711E+00 -1.544771858815E+00 -1.020751272126E+00 4.665140648942E-01 -2.513712224945E+00 -2.040963101886E+00 -8.684340345076E+00 -1.138929320845E+01 9.615537619985E+00 -9.326219844163E+00 -5.099426502326E+00 -1.077633064102E+01 -1.323558023852E+00 1.951740083958E+00 3.794723385591E-01 1.058417918484E+00 2.215449383613E+00 -5.151994558400E-01 7.556881649327E-01 -1.075716058469E+00 -3.420562112575E-01 2.800675606879E+00 -2.723499884019E+00 8.469633433314E-02 3.134548159513E+00 3.390904682313E+00 -5.260299996635E+00 -3.055247520672E-01 -3.015037913106E+00 2.102691909491E+00 3.766805594775E+00 2.971944912370E+01
 5.657089100951E+00 3.295169228468E+00 -1.010770604097E+00 -3.435549965415E-01 -3.457187515068E-01 -7.074482212613E-01 1.074651417084E+01 1.057712136710E+01 -1.168724361918E+01 9.207755226971E+00 7.588544934689E+00 9.366682238191E+00 -1.783362031029E+00 -4.759489493919E-01 -1.714838940576E+00 -1.258582272272E+00 -2.798171579929E-01 3.954555357781E-01 4.290911161915E-01 -9.741659996148E-03 -1.253219593897E+00 5.869717036571E-01 -1.477890477212E-01 -5.222931320931E-01 1.115323923920E-01 4.220173277282E+00 4.804660545665E+00 5.885320613097E-01 -8.126453018173E-01 -3.871517029982E+00 -2.858510724038E+00 -8.236060717107E+00 1.468546306320E+01
 1.749313661977E+00 -3.438938207926E+00 -1.286554875645E+00 3.164975370199E+00 4.181474375819E+00 -1.506426432946E+00 -1.475579640455E+00 -1.391852463864E+01 -1.070873454160E+00 -9.734921008206E+00 -3.720378136532E+00 -7.569263940799E+00 3.221889150447E-01 1.401572520041E+00 1.562649177636E+00 -3.360153113722E-01 -9.413250126518E-01 -1.314749461045E+00 -1.160448557403E+00 6.874247012569E-01 -7.859752328523E-01 2.720088827213E-01 1.926076359151E+00 -1.979520742562E+00 -1.037683728085E+00 -5.599403948934E+00 -4.868778488991E-01 4.799421132831E+00 3.432277094629E+00 2.408727940272E+00 -4.733864476440E+00 2.423591207153E+00 -5.849785031123E-01 3.466812936690E+01
 -3.299766754429E+00 -1.625441501248E+00 -2.262853924721E+00 -2.655567488464E+00 -3.644943889523E-01 4.006540015838E+00 -7.497244225761E+00 5.905418656913E+00 1.571660893875E+01 -3.528637517524E+00 -3.952691149817E+00 -3.580538242422E-01 1.220489557744E-01 -1.424586674523E-01 -3.291764894619E+00 1.233993671460E+00 -1.938905036658E+00 -1.057986537263E-01 -3.342397412216E-01 -1.842639973286E+00 1.313140082498E+00 -2.119962295161E+00 -3.651635630155E-01 -2.261002817233E+00 4.142439339225E+00 9.615976446298E+00 -2.738098961408E+00 -3.134540559071E+00 -8.258818912982E+00 3.750765997427E+00 7.016853063310E+00 6.181653148422E-01 -3.841856803588E+00 -5.335007120913E-01 2.290997836469E+01
 -4.089727009711E+00 2.801536079156E+00 -3.513965111940E+00 -4.021901906327E+00 -2.717113658701E+00 2.186174708008E+00 -2.304553553301E-01 1.892279973375E+01 1.641898934807E+01 7.605862113688E+00 3.277835960923E+00 -2.648431167415E+00 2.880041293555E+00 7.260576090171E-01 -2.489198219271E+00 -8.478368378144E-02 -4.016005581011E-01 6.506785020531E-01 5.571814760799E-01 -1.812039315519E+00 6.462031737680E-01 -2.534349584979E+00 -2.724725901603E+00 3.907096987675E+00 9.304854723767E+00 1.100848695267E+01 -8.694022425972E+00 -4.810747694607E+00 -9.568631294210E+00 5.462054203842E+00 1.049033375486E+00 4.505831984841E+00 -6.316910046700E+00 -1.376019361231E+01 1.251678575923E+01 4.213983745707E+01
 2.735932676383E+00 1.431330716869E+00 -2.487814179432E+00 2.642872435784E+00 3.445718629034E-01 -1.800821501791E+00 1.247026683799E+00 4.432202070807E+00 -1.149619482592E+00 7.307049535140E-01 -8.456778241382E-01 1.778646894745E+00 5.582459453954E-01 1.213260043477E+00 3.967700681502E-01 4.600730807447E-01 4.488675757801E-01 5.467178647496E-01 -2.103945631383E+00 -2.477116698129E-02 -3.583090487270E-01 -7.168948570856E-01 -3.698568332987E-01 -2.012292760517E-01 -3.538842759402E+00 -2.008867024140E+00 1.987485826673E+00 5.059001971041E-01 2.388198912475E-01 7.393468149953E-01 -1.335438377310E+00 5.176622411875E-01 -1.523207048421E+00 4.502681790581E-01 -1.131790305099E+00 2.741013387246E+00 9.461233962885E+00
 -1.832442703418E+00 -2.654093431413E-02 1.937612217465E+00 1.226327573739E+00 -3.466164170505E-01 5.994892225650E-01 5.354213035685E+00 -2.617521035846E+00 -9.438479913879E+00 4.958643805133E+00 1.561201003293E+00 4.161273594724E+00 3.101261680087E+00 -1.029848128476E+00 2.040113287775E-01 -6.341031125173E-01 1.717273618026E-01 -8.071673132330E-01 6.111641127711E-01 1.534880598868E+00 -1.616176952518E+00 -2.031006511902E-01 1.650169200799E+00 1.873546426441E+00 -9.817920251736E-01 -2.437203987955E+00 2.847014471512E+00 4.885666839117E-01 5.429746637162E-01 -2.995105083023E+00 7.644968878559E-01 1.640794547266E-01 -3.697479591422E-01 2.546002442157E-01 -6.137935981314E-01 -5.683438760702E+00 -1.204637771333E+01 3.264971561070E+01
 -4.448877996094E+00 -2.303906010128E+00 5.538670652355E+00 -4.985104125249E+00 -1.552949921238E-01 2.275616807919E+00 9.325588793590E-01 -6.773992306848E+00 -1.028794780205E+01 -4.767719665115E-01 1.472593697305E+00 -6.011925608740E+00 -2.411431087978E-01 -1.423593981964E+00 1.825024378775E-01 -1.044520620635E+00 4.653008283800E-01 -1.102065103411E+00 2.742638636704E+00 -1.748110846236E-01 -1.520632930310E+00 1.844905664411E-01 -6.559791604826E-01 9.119222193977E-01 1.481215900982E+00 -4.848330935457E+00 -6.346887283295E+00 -1.996615510545E+00 -8.457315099292E-01 -2.338105837847E+00 -1.317323022723E-01 -6.487048499812E-01 5.418583865959E-01 -3.133233630003E-01 -2.588601456632E+00 -3.203004056104E+00 -6.297171708605E+00 1.362965589995E+01 2.392321188016E+01
 2.193156538413E+00 8.858962319916E-01 -5.773739474682E+00 -9.982385901320E+00 -4.626719919694E+00 8.494757026128E+00 -4.882617677357E+00 9.919571401210E+00 -4.831433810194E+00 8.945927864397E-01 -3.102392959517E-01 1.120766556542E+00 -6.745318181009E-01 1.231264637142E+00 3.892294834273E+00 1.096150685722E+00 -3.184461534895E-01 -2.975546510229E+00 -3.189594448747E+00 -2.112811036600E+00 -7.461788224948E-01 5.960652248352E+00 -4.893751963363E-01 3.576239595979E+00 -6.836689858759E+00 1.651014954116E+00 5.438422474914E+00 3.241108910726E+00 2.805651021118E+00 3.794883213980E-01 -4.206445757080E+00 5.075183737602E-01 -1.056297848653E-01 2.460273957306E+00 1.928613082809E-01 -3.535527270877E+00 1.425443129677E+00 5.567657871642E+00 8.654408616356E-01 6.519594231820E+01
 2.412968329821E+00 6.584773208187E+00 -2.496533195271E+01 -3.880215965874E+00 -8.444071847727E+00 -1.943709330134E+00 6.352534014828E-01 1.013863576241E+01 2.472795905568E+01 -5.314340514283E-01 1.028051357587E+00 7.271817115083E+00 5.880392566489E+00 2.839279731982E+00 2.018158476160E+00 -1.612891739940E-01 -3.538186236807E+00 1.428922743234E+00 -5.690867243377E+00 -1.640548670994E+00 2.861780031320E+00 -8.995999622232E-01 -3.207136481217E+00 1.703340184860E+00 7.597080651402E-01 1.312823974651E+01 5.720243932118E+00 -7.334662078735E+00 -8.817334170710E+00 5.580974285687E+00 7.790484846581E-01 5.890289441973E-01 -4.159225560150E+00 -4.446259637798E+00 1.016956173516E+01 1.918442246542E+01 1.170580765272E+01 -2.677821932887E+01 -2.049415574857E+01 3.837229695266E+00 8.700096464216E+01
 -7.111562515256E+00 -6.726411868841E+00 2.350049123095E+01 6.286428794332E+00 9.834499952718E+00 4.413476574108E+00 -3.285668494477E+00 -1.615335255858E+00 -1.198007928726E+01 -1.714458019605E+00 -2.676011226235E+00 -4.826269292526E+00 -5.518893161083E+00 -8.466769395144E-01 -4.010461411122E+00 -1.893473679150E-01 1.877088451300E+00 1.261855647414E-01 3.782249111037E+00 -5.262213624837E-01 7.705468680816E-01 -1.700192330412E+00 7.363293070722E-02 -2.113892738603E+00 6.276319277985E+00 -4.495324698739E+00 -2.535972380178E+01 8.216860197688E+00 6.950148656615E+00 -1.537443111024E+00 3.890787147832E-01 1.320637730091E+00 2.344257283330E+00 2.792094776582E+00 -1.793571976048E+00 -6.613400313598E+00 4.057869907422E+00 -1.140023586674E+01 -6.192845403515E+00 -6.292981914470E+00 -1.866031664056E+01 9.015934239851E+01
 -1.166890531360E+00 -6.805819356879E-02 6.356000526109E-01 -9.475896714497E-01 -9.262690189497E-01 9.148344663964E-01 -6.235346700458E-01 4.667922031718E-01 -4.132410171960E-01 1.023548638417E+00 5.994918694756E-01 -1.305825023213E+00 -9.560982618710E-01 -8.664589093200E-01 -6.285917380090E-01 4.829766724939E-02 5.255437499383E-01 2.026046912804E+00 1.934196288967E+00 7.215039803161E-01 -8.739251079006E-01 -5.031375730035E-01 -4.360137676103E-02 6.225335037106E-01 1.384090330948E+00 5.833672162211E-01 2.962152802134E+00 9.008986856697E-01 -6.619603144261E-01 1.357346700021E+00 9.532964480986E-01 -7.038191369768E-01 -8.429744815670E-01 -2.000393246607E+00 8.186226904973E-01 1.267450383638E+00 -1.994762367966E+00 2.311261616618E+00 1.531894575840E+00 -1.633337434443E+01 -5.534207016653E+00 -1.750694405017E+01 2.610752407987E+01
 -1.261834649377E-01 2.517558681648E+00 -1.028363890957E+01 1.920650450133E+00 -2.867154882665E+00 -7.524227901978E-01 -8.018352895758E-01 1.223097979232E+01 8.336721771092E+00 3.224298445314E+00 2.942698809364E+00 2.842021395424E+00 -7.556482385904E-02 6.167672917861E-02 -1.499883248222E+00 -1.695783672284E+00 -3.329060282212E-01 2.788125284697E+00 -3.047409233361E+00 -1.875642194088E+00 1.732931356376E+00 2.774636157349E+00 -3.639612734424E+00 -1.034985293446E+00 4.753816569435E+00 6.226526239099E+00 5.108635976402E-01 -1.389941778750E+00 -7.853339909193E+00 1.495837496065E+00 2.673817761875E+00 2.948998140175E-01 -2.165469404829E+00 -6.920878567698E+00 9.245711040401E+00 1.157492453438E+01 2.515656696713E-01 6.374320545577E-01 -1.506427153547E+00 -3.631711657299E+00 1.403917484792E+01 -6.150678861719E+00 2.545423878330E+00 1.903894898893E+01
 7.542515814961E-01 9.777480426268E-01 4.233613298916E+00 -1.416393620522E+00 -1.067463597824E+00 -6.283828343550E-01 8.064451230256E+00 3.136400994162E+00 -8.587910075303E+00 9.353639357129E+00 3.715561583048E+00 4.929647470790E+00 -2.561077140426E+00 1.690185081700E-01 3.927591670594E-01 -1.043339876417E+00 8.820824848221E-01 4.510772696076E-01 -5.215338670147E-01 -4.345745545532E-01 -1.587461609733E+00 9.012894028107E-01 1.414402397652E+00 -1.535318911807E+00 -4.984496737382E+00 -6.176668197574E+00 2.105311026350E+00 2.673037971800E+00 1.665751866040E+00 -3.406976977798E+00 1.240892832319E+00 -1.725464834563E+00 2.962562134733E-01 -6.842200085840E-01 -3.067501704948E+00 -3.150357715574E+00 1.224748718407E+00 2.842669673348E-01 1.351776701139E-02 -1.526938857664E+01 -8.693899791516E+00 -1.479792572538E+01 1.288821348055E+01 1.182673227915E+00 2.612084099506E+01
 -5.020628896008E+00 2.347741463807E+00 2.701399640398E+00 -2.006568472212E+00 -1.894878097113E+01 -1.675694687579E+00 -1.541744014660E+02 -1.818019132946E+02 1.155875216598E+02 -1.720441908698E+02 -7.752664272206E+01 -2.104876253568E+02 -1.767774398215E-02 -6.498070410767E-01 1.032252032219E+00 2.351855756453E+00 3.035259342442E+00 -2.494590202022E+00 2.988256035809E+00 2.650543011074E+00 1.512808544684E+00 4.557580150418E-01 -8.565944640102E+00 -2.895466789468E+00 -7.696187433701E+00 -3.469518396101E+01 -7.102806288616E+00 -2.661360620030E+01 2.100197314651E+01 -1.104859371404E+01 3.052644550451E+00 6.648568960508E+00 -6.673552322204E+00 -1.054808722982E+01 -1.207282905085E+01 -1.028296859988E+01 1.383393267513E+00 -4.299567241751E-02 4.696276489801E+00 2.059702318528E+00 -1.373528134352E+01 2.413579084223E+00 4.487924211688E-01 -1.136313376578E+01 -1.404804742166E+00 2.218189537541E+02
 2.922025858056E+00 -6.711097152090E+00 2.307628038989E-01 -6.572509059133E+00 -1.033779520245E+01 3.184200757898E+00 -7.875103897501E+01 -8.445229374590E+01 5.640788684098E+01 -8.801525744372E+01 -3.794302205637E+01 -1.022891385763E+02 -1.162527873068E+00 -1.835247234835E+00 1.275578465495E-01 6.027698629008E-01 5.568238300227E-01 -1.652459150784E+00 1.909699053329E+00 2.252933424809E+00 8.376920035836E-01 -1.369564852867E+00 -3.120574241026E+00 -3.669108201979E+00 -5.606226792667E+00 -1.783047951878E+01 1.536749397062E-01 -3.360939618712E+00 2.223224930349E+00 2.122110407895E+00 -2.835263802604E-01 -2.335140307558E+01 -3.352520055687E-01 2.090111587699E+00 3.442579828359E+00 -7.468020717374E+00 -1.669842123647E+00 -4.874436195527E+00 5.033159345943E-01 -2.406975480048E+00 -1.474364202416E+01 1.077498803310E+00 1.152815462154E+00 -1.820046873809E+00 4.961253177587E-01 8.413907900270E+01 1.102182781066E+02
 2.587181728591E+00 -1.559240611736E+01 -9.291382993784E+00 -2.117986979556E-01 -2.381576855952E+01 2.356395186193E+00 -2.218377979514E+02 -2.592825833151E+02 1.711865208195E+02 -2.491239903759E+02 -1.098343036388E+02 -3.092563392532E+02 4.167265429383E+00 2.615690879000E+00 1.779252011763E+00 -1.007432157357E+00 4.046929354263E+00 -4.068184487838E+00 2.637291149615E+00 2.636320265303E-01 -4.289498788562E-01 3.120075051537E+00 -9.653722002722E+00 -2.441860562023E+00 1.253720360882E+01 -2.537918227838E+01 -3.797332441497E+01 -3.142122207486E+01 1.951567910632E+01 -5.142891857060E+00 7.628432248869E+00 1.669826310020E+01 -1.858104396132E+01 1.868203163235E+01 6.045382487643E-01 -7.537554530527E+00 -3.040356169504E+00 -1.962323075540E+00 6.483089442750E+00 -2.502865732520E+00 -1.076462929104E+01 4.994645784088E+00 -1.464173860771E+00 -3.745388422844E+00 -7.645081197925E+00 2.259470906852E+02 1.089953185513E+02 3.830339707726E+02
 -7.041401057703E+00 -4.743280097536E+00 1.335324377891E+01 -1.250878889235E+01 -5.475071374995E+00 4.572866649985E+00 -1.838904554118E+01 -3.003490472648E+01 1.350966932700E+01 -2.612954233216E+01 -8.812386954806E+00 -3.145281066345E+01 -2.007995356709E+00 -1.848600728861E+00 1.430292525769E+00 -1.612429301705E+00 2.521585454338E+00 1.055089694074E-01 2.378278729274E+00 7.462364367415E-02 -5.168111892067E-01 -1.141598038201E+00 -2.732583141874E+00 -4.037550823498E+00 -4.180270658164E+00 -8.477231004296E+00 -2.542877255587E+01 -1.218514281885E+01 -1.299159442851E+00 -3.713721834216E+00 -4.788229220397E-01 -1.040085335503E+00 1.826120942471E-01 1.426166499959E+00 -1.112432705989E+00 -6.394277063880E+00 -3.521520478857E+00 -1.394771084049E+00 8.759933384805E+00 -1.836940617994E+01 5.852065875685E-01 1.236216249371E+01 -5.437979414471E+00 -7.417341812499E+00 4.124345733781E+00 1.814545328140E+01 1.461785616360E+01 3.368435649408E+01 6.448963260107E+01
 -6.732632082201E+00 -1.463091733803E+01 1.084753085502E+01 -1.003816330095E+00 -1.375927558722E+01 8.156731441952E+00 -1.938423638861E+01 -3.734239433632E+01 5.653033998678E+00 -2.509254018283E+01 -1.068201615249E+01 -3.756121576721E+01 -3.825657958685E+00 -8.037226628156E-01 1.232467973056E+00 1.385479086619E+00 3.035553694772E+00 6.190491113732E-01 4.037554208894E+00 1.367636797387E+00 -1.147835573638E+00 -1.730978904467E-01 -4.568157296362E-01 -3.845403521788E-01 9.798277336512E-01 -1.538108058866E+01 -9.475323913553E+00 -4.568127104020E+00 2.901967503450E+00 3.541468497316E+00 -3.537914000938E+00 1.130902323403E+00 -7.914910581462E-01 4.849577176286E+00 -7.310390928852E+00 -7.747776290020E+00 -3.196490131624E-01 8.262619708462E-01 1.052121128180E+01 1.045268673278E+00 -3.023397733809E+01 8.395473931182E+00 2.540336283269E+00 -1.542337276678E+01 5.497277702505E-01 3.121512947820E+01 1.366816850236E+01 3.965486694756E+01 1.266858135162E+01 6.345136220968E+01
 1.892924140286E+00 2.456745266214E+00 -3.210593865963E+01 1.864221804318E+00 -1.536791505727E+00 -9.244763190157E+00 -1.644024114782E+01 4.348376186172E-01 2.457137967128E+01 -1.541679512441E+01 -6.372097870693E+00 -1.042910249431E+01 6.209330239666E+00 1.909318394303E+00 2.195024123411E+00 3.041543921325E+00 -1.825436960536E+00 -1.227970530434E+01 -3.868573582853E+00 -2.149062229125E+00 3.108411595607E+00 -9.271857853321E-01 -2.232174868812E+00 3.517378849077E+00 -2.586939008642E+00 1.175006877326E+01 3.928830024591E-01 -4.960787345624E+00 -4.210057468580E+00 -5.789728750423E+00 -1.186495176403E+00 2.727537702745E+00 -4.568864330753E+00 -6.165668173585E-01 9.654384519320E+00 1.389849345154E+01 2.684330311206E+00 -4.254925746510E+00 -5.584005700034E+00 8.443176321110E+00 3.847177303739E+01 -3.500161418971E+01 2.441714563774E+00 1.228082457417E+01 -1.033577118971E+01 2.323600088315E+00 1.341650446600E+00 1.330304010269E+01 -1.480824631388E+01 -2.462015828506E+01 8.425055854066E+01
 -8.277563694850E+00 -3.251516467272E+00 2.955451476301E+00 -1.418714869846E+01 -1.545834058665E+01 6.865711585822E+00 -1.472621509649E+02 -1.455949839786E+02 1.226371700010E+02 -1.497247650745E+02 -6.407268396204E+01 -1.783541344272E+02 3.403428774092E-01 -1.138780659816E+00 -3.752281670204E+00 -3.439851287355E-01 -8.216460540596E-01 -2.687841389212E+00 6.123044340524E-01 2.188083556935E+00 9.310662066375E-01 -5.176882897578E-01 -1.236376936954E+01 -7.336814718109E+00 1.069208873492E+00 -6.990228867947E+00 -9.158537034712E+00 -1.811647244486E+01 2.438703148749E+00 3.198477220614E+00 5.929525386931E+00 4.867491211923E+00 -8.800828983700E+00 -3.217527149786E+00 1.146525476803E+01 7.797223942463E+00 -2.353483788879E+00 -6.856507811145E+00 -1.008751170364E+00 -7.295024612077E+00 -4.283943172998E-01 -2.499270335394E+00 -1.049682742581E+00 3.640126977785E+00 -6.311470697602E+00 1.330055655504E+02 8.278088824678E+01 1.870447562316E+02 2.554452760165E+01 1.624326072528E+01 1.224615409808E+01 1.725996653542E+02
 3.636233168292E+00 -7.626334550132E+00 6.385371489423E+00 3.917074185910E+00 -2.141017046030E+01 -5.381939955062E+00 -1.968294189615E+02 -2.631798928595E+02 1.338214031002E+02 -2.093176617776E+02 -9.407537008956E+01 -2.685479334472E+02 2.669346372993E+00 -2.194581128117E-01 2.280045598751E+00 -4.769218803442E+00 5.278677688746E+00 -3.535575972735E+00 6.896024552838E+00 3.464196679931E+00 7.705475186771E-01 5.192224825656E+00 -4.180284723723E+00 -7.034900661244E+00 3.123091502845E+00 -5.024673795533E+01 -2.009930358894E+01 -7.802065316825E+00 2.934294710268E+01 1.052605529597E+00 4.062613263493E+00 8.972127354313E+00 -7.551597156022E+00 1.739646195325E+01 -2.551179426542E+01 -3.546756538791E+01 -3.895873278142E+00 5.960597947438E+00 9.484294288293E+00 -1.266610583277E+01 -3.601708544462E+01 1.904128646541E+01 -2.155997006929E+00 -2.288328311427E+01 2.166171874238E+00 2.204457421167E+02 8.704681074470E+01 2.986812505934E+02 3.589535998960E+01 5.239873270558E+01 -2.271273275049E+01 1.495356106099E+02 3.455119029002E+02
 9.040015319535E+00 8.664893156978E-01 4.668384336718E+00 7.395170366636E+00 1.681477118718E+01 -8.342222916286E+00 1.364327992905E+02 1.202273662368E+02 -1.286661990035E+02 1.335632255688E+02 5.117257470211E+01 1.603832690280E+02 -2.788470004428E+00 -3.816026141117E-01 6.014113961922E+00 9.364189785552E-01 -1.094559624853E+00 -3.173351106491E+00 4.622142234628E+00 9.088419017560E-02 -3.431338453796E+00 -4.128917240805E-01 1.314938721607E+01 -8.630365089714E+00 -1.266006262462E+01 -2.712280075121E+00 1.489528993492E+01 1.572245187256E+01 6.574117867046E+00 -9.972908369637E+00 -8.188440133830E+00 -1.053784830124E+01 1.453560251567E+01 1.062853163942E+01 -2.384050319481E+01 -3.763651835669E+01 -5.120765642548E-01 1.034294523854E+01 3.878159932055E+00 -1.799610014552E+00 -2.346676294003E+01 3.336266475115E+00 -2.470543986088E+00 -1.539816075441E+01 1.288530480786E+01 -1.086992261995E+02 -5.836867004952E+01 -1.718361113635E+02 -8.214358506710E+00 -3.723998382319E+00 -2.690700524858E+01 -1.342782999132E+02 -1.076171454022E+02 1.858108514800E+02