#BIOSYM hessian 1
@Type: Hessian Update
@Units
 distance: 	A
 energy: 	Kcal/Mol
#header
@natom 4

#label
L1      L2      L3      L4

#element
Li Li Li Li

#matrix
12
 6.793071732969E+02
 1.669037682143E+02 2.222706130211E+03
 -2.067390160083E+02 1.575565844551E+01 1.216239833464E+03
 4.584297833218E+02 -5.469165523325E+01 2.591710878789E+02 7.198310521952E+02
 -3.432393545570E+01 4.366607925671E+00 -3.059757236394E+01 1.780267339752E+02 2.217423263640E+03
 -2.777904029197E+01 -1.349595006993E-01 6.250070546597E+02 2.290659888387E+01 -4.348065619887E+00 6.028422409713E+02
 4.772738610658E+02 -5.365675904774E+01 2.164859691613E+02 6.201684271513E+02 -7.977096492975E+01 2.034876919496E+01 6.913932673750E+02
 -7.487351982270E+01 8.470877577536E+00 -2.373866789710E+01 -7.371966947956E+01 9.551799473156E+00 -6.342069702033E+00 1.903973918966E+02 2.217302037258E+03
 2.098207762536E+02 -1.976239124885E+01 -8.236568586233E+01 -2.647168375376E+02 3.607256059852E+01 4.885504432428E+02 -2.119500035314E+02 2.056723556141E+01 1.214766007866E+03
 6.258353030367E+02 -5.855535393329E+01 -2.689180410317E+02 4.424168580522E+02 -6.393183358985E+01 -1.547632778734E+01 4.520105651290E+02 -4.180420259434E+01 2.668460648157E+02 7.205833945025E+02
 -5.770631293623E+01 5.302505006562E+00 3.858058181545E+01 -4.961540926217E+01 9.504449682057E+00 1.082509482306E+01 -5.696966791923E+01 5.521406411984E+00 -3.687740491146E+01 1.642913901177E+02 2.220517759620E+03
 2.469728004642E+01 4.141692304067E+00 4.819649184597E+02 -1.736084922504E+01 -1.126922614727E+00 5.244463818470E+02 -2.488473482466E+01 9.513502037706E+00 6.198953554741E+02 1.754830400334E+01 -1.252827172702E+01 6.145394649401E+02

