#BIOSYM hessian 1
#COMMENT: Materials Studio generated
@Type: Hessian
@Units
 distance: 	A
 energy: 	Kcal/Mol
#header
@natom 2

#label
Mn      Mn      

#element
Mn Mn 

#matrix
6         
 1.454135488426e+000
 4.312642435950e+000 1.279033826517e+001
 -4.442646878203e+000 -1.317590252585e+001 1.357308960651e+001
 -1.454135488426e+000 -4.312642435950e+000 4.442646878203e+000 1.454135488426e+000
 -4.312642435950e+000 -1.279033826517e+001 1.317590252585e+001 4.312642435950e+000 1.279033826517e+001
 4.442646878203e+000 1.317590252585e+001 -1.357308960651e+001 -4.442646878203e+000 -1.317590252585e+001 1.357308960651e+001
#dipole
 0.000000000000e+000 0.000000000000e+000 0.000000000000e+000
 0.000000000000e+000 0.000000000000e+000 0.000000000000e+000
 0.000000000000e+000 0.000000000000e+000 0.000000000000e+000
 0.000000000000e+000 0.000000000000e+000 0.000000000000e+000
 0.000000000000e+000 0.000000000000e+000 0.000000000000e+000
 0.000000000000e+000 0.000000000000e+000 0.000000000000e+000

