#BIOSYM hessian 1
@Type: Hessian Update
@Units
 distance: 	A
 energy: 	Kcal/Mol
#header
@natom 19

#label
L1      L2      L3      L4      L5      L6      L7      L8      L9      L10     L11     L12     L13     L14     L15     L16     L17     L18     L19

#element
Li Li Li Li Li Li Li Li Li Li Li Li Li Li Li Li Li Li Li

#matrix
57
 2.231887961966E+03
 2.997701108177E+00 2.212115286682E+03
 9.907989336779E+00 -2.263338476549E+01 2.216663188523E+03
 2.567710899238E-01 -3.557076067311E+00 -2.680172140764E+00 2.240408518220E+03
 -2.926258369378E+00 1.159263536188E+01 1.059634459579E+01 1.409475980983E+00 2.235832831330E+03
 -1.618928727963E+01 -3.650206834947E+01 -1.120611411751E+01 -4.790991373545E+00 1.074225672660E+01 2.148340232734E+03
 -2.736029628015E+00 -3.436098881072E+00 2.421554725059E-02 -4.623716690734E-01 7.676861887416E-01 -1.152048423346E+01 2.239331959759E+03
 7.511696451148E+00 -2.158482456171E+01 -2.137325743363E+01 -2.573967885855E+00 9.721723281920E+00 -1.521889269851E+01 -6.662860946206E-01 2.221666167508E+03
 -2.984606040924E+00 4.250289196804E+01 3.211595726288E+01 5.260260493292E+00 -1.684776652872E+01 5.738403102096E+01 5.583002950955E+00 3.091596564915E+01 2.177824130674E+03
 -9.779660746825E+00 -2.581414164688E+01 -9.478805933284E+00 -3.363003781952E+00 7.943647097686E+00 -6.166878402733E+01 -7.555362230259E+00 -1.183076309364E+01 4.028773224764E+01 2.199661455979E+03
 -1.477294661112E+01 -2.472086298350E+01 -4.275914249035E+00 -3.290716497596E+00 6.520993860901E+00 -7.149848420677E+01 -9.164015542735E+00 -7.982394446705E+00 3.948070595522E+01 -4.725601312967E+01 2.184765954229E+03
 -2.431776964008E+00 1.547591601753E+01 1.280664820728E+01 1.895179834830E+00 -6.392273140912E+00 1.774027358308E+01 1.545520858134E+00 1.202779417520E+01 -2.271009677896E+01 1.273872484382E+01 1.165708376887E+01 2.232473956823E+03
 -2.570053687728E+00 -4.743827126135E+00 -1.029664515918E+00 -6.269353773516E-01 1.300600201700E+00 -1.309213696899E+01 -1.661497711258E+00 -1.675559118747E+00 7.527348356057E+00 -8.689534307284E+00 -1.022297297755E+01 2.253171793256E+00 2.238982155595E+03
 5.618250160003E+00 -6.126816698584E+00 -9.200472148476E+00 -6.894383302119E-01 3.465344072676E+00 3.689404710762E+00 1.049099545506E+00 -7.640124100545E+00 8.214857388856E+00 1.685287448614E+00 4.706062178307E+00 3.779707170973E+00 7.454713764769E-01 2.236687222328E+03
 -1.790767818317E+00 -3.228523781654E+00 -6.973967180612E-01 -4.281452583796E-01 8.819091351484E-01 -9.030242906883E+00 -1.148653015415E+00 -1.139786296792E+00 5.135211484163E+00 -5.968355259901E+00 -7.051145248396E+00 1.542195875945E+00 -1.289244345718E+00 5.390754563540E-01 2.239960179109E+03
 -4.070772283161E+00 -7.890215712819E+00 -1.945248305275E+00 -1.044394942008E+00 2.211856711979E+00 -2.133002512482E+01 -2.697005468674E+00 -2.960132500662E+00 1.250574445094E+01 -1.415113257423E+01 -1.660746249251E+01 3.789347602197E+00 -3.035991782844E+00 1.130504733179E+00 -2.091458367550E+00 2.235911522325E+03
 4.036666696337E+00 2.540568859162E+01 1.408871575459E+01 3.216317630191E+00 -8.910976080384E+00 4.777116483119E+01 5.415881023801E+00 1.490410802260E+01 -3.862268339027E+01 3.248199384556E+01 3.528180251607E+01 -1.301234406879E+01 6.561492456052E+00 1.555063028739E+00 4.502439434701E+00 1.077318340171E+01 2.213277670780E+03
 -1.278334309128E+01 -2.736757627013E+01 -7.845173505041E+00 -3.585915571587E+00 7.928271785416E+00 -7.094941110266E+01 -8.861040884545E+00 -1.097317103522E+01 4.306151550023E+01 -4.715941038772E+01 -5.493377221692E+01 1.323638588452E+01 -1.005832117339E+01 3.173962192811E+00 -6.925180059845E+00 -1.637382476118E+01 3.625778445640E+01 2.186508612892E+03
 1.418055252996E+01 -9.818005535222E+00 -1.914567028759E+01 -1.024688416028E+00 6.564013554134E+00 1.792977089822E+01 3.549643072677E+00 -1.527966326371E+01 1.224157990206E+01 1.015519162434E+01 1.795715746923E+01 6.497021505985E+00 3.045478019337E+00 -9.658297316808E+00 2.132760949040E+00 4.740969968501E+00 -1.559650588577E+00 1.448413701463E+01 2.217529598761E+03
 3.551132853448E+00 2.539652866663E+01 1.459191107230E+01 3.224470567409E+00 -9.015840380107E+00 4.662107270290E+01 5.255745441426E+00 1.529940085706E+01 -3.860051510655E+01 3.176430518829E+01 3.430172759512E+01 -1.309245919437E+01 6.393014065909E+00 1.840286969660E+00 4.379336640487E+00 1.048679177073E+01 -2.724596346778E+01 3.540549999524E+01 -7.660528395948E-01 2.213950567600E+03
 1.804332934573E+00 -5.104558222754E+00 -5.070292455416E+00 -6.090028020763E-01 2.303207754270E+00 -3.520884744851E+00 -1.472743109590E-01 -4.549803948064E+00 7.310372978866E+00 -2.759332161515E+00 -1.826443494857E+00 2.844015622743E+00 -3.838508371907E-01 -1.827617392795E+00 -2.635556693000E-01 -6.826082534702E-01 3.505909257549E+00 -2.544559336632E+00 -3.659634295860E+00 3.599155216144E+00 2.239768044523E+03
 -1.066812538783E+01 -6.882406071655E+00 4.538995675722E+00 -1.007246471865E+00 5.123135127078E-01 -3.504032433861E+01 -4.899615617031E+00 1.757574995574E+00 1.210893976548E+01 -2.261771250387E+01 -2.876171069762E+01 2.625300072564E+00 -5.165762220522E+00 5.075413551346E+00 -3.577142176567E+00 -8.330037717337E+00 1.490863684978E+01 -2.715999682501E+01 1.496066932788E+01 1.425551764407E+01 4.573277935432E-01 2.224214608952E+03
 1.479630876380E+01 6.502140542085E+00 -8.365280618764E+00 1.022890685900E+00 4.471582509136E-01 4.400238162529E+01 6.325456303681E+00 -4.475523210562E+00 -1.227214123101E+01 2.817140804100E+01 3.664093052005E+01 -2.053640755160E+00 6.554416697520E+00 -7.505644346395E+00 4.539625114043E+00 1.053490263413E+01 -1.776880404191E+01 3.421298144593E+01 -2.128111271553E+01 -1.685579510956E+01 -1.114757305461E+00 2.191796958145E+01 2.211719595824E+03
 1.292396154947E+01 1.968505083683E+01 2.418606535781E+00 2.636333543634E+00 -4.966322841807E+00 5.964301278057E+01 7.714972133116E+00 5.668582267239E+00 -3.163393896800E+01 3.929953779931E+01 4.699617427994E+01 -9.183311093010E+00 8.557387896407E+00 -4.424160350652E+00 5.898313151734E+00 1.388347519355E+01 -2.899395510842E+01 4.584684728753E+01 -1.606570679145E+01 -2.814531461066E+01 1.290264037290E+00 2.443956735857E+01 -3.126186251783E+01 2.201409048505E+03
 -8.754665559914E+00 -1.724354770178E+01 -4.320174801559E+00 -2.272475409071E+00 4.854220030661E+00 -4.629031843478E+01 -5.834963737166E+00 -6.492408461285E+00 2.726632614756E+01 -3.072816610132E+01 -3.600682814702E+01 8.271063776964E+00 -6.580440716002E+00 2.391551115425E+00 -4.537090559856E+00 -1.070836277925E+01 2.340082395728E+01 -3.550921081089E+01 1.017735534479E+01 2.281399166866E+01 -1.497743549288E+00 -1.802357712238E+01 2.279177291807E+01 3.009709305098E+01 2.217623506503E+03
 -1.261798912034E+01 -1.319414189989E+01 1.804276660757E+00 -1.824665248827E+00 2.547082336619E+00 -4.911863570608E+01 -6.591835874338E+00 -1.428192045783E+00 2.189177362581E+01 -3.204540154221E+01 -3.943900786450E+01 5.793884272414E+00 -7.139367627794E+00 5.239946665187E+00 -4.926354666525E+00 -1.154149873796E+01 2.251450920066E+01 -3.789640390263E+01 1.676766046022E+01 2.170414306353E+01 -2.904946759335E-01 -2.158570011150E+01 2.801866084558E+01 3.328532716411E+01 -2.500474592397E+01 2.212140168437E+03
 -6.801314975283E-01 -6.181983143742E+00 -3.717526737906E+00 -7.834889623202E-01 2.231855615195E+00 -1.092052546639E+01 -1.214314510540E+00 -3.842649814590E+00 9.369938466844E+00 -7.465822440111E+00 -7.979778235741E+00 3.206593299124E+00 -1.491030600768E+00 -5.548030624100E-01 -1.020558341951E+00 -2.447742583347E+00 6.493670630764E+00 -8.287342680757E+00 -9.765685140420E-02 6.415200213434E+00 -9.045113916886E-01 -3.226456716316E+00 3.770319691592E+00 6.531801921125E+00 -5.328997165313E+00 -4.983635646907E+00 2.239312899908E+03
 -5.157649198797E+00 -3.759295467467E+00 1.892259264800E+00 -5.398200369116E-01 4.133396429492E-01 -1.760221120960E+01 -2.435950716420E+00 5.558584165246E-01 6.494965412250E+00 -1.138704963868E+01 -1.436998136533E+01 1.497572733701E+00 -2.585959451395E+00 2.390661798595E+00 -1.788693589494E+00 -4.172692186560E+00 7.619766060763E+00 -1.362161592688E+01 7.158620951359E+00 7.305040761559E+00 1.508260171780E-01 -8.206694674798E+00 1.078036015129E+01 1.219038835081E+01 -9.029169442656E+00 -1.070910019250E+01 -1.659746308358E+00 2.236792298061E+03
 7.474430011379E-01 1.011875454837E+01 6.423310467755E+00 1.278621438500E+00 -3.728656427283E+00 1.704029945368E+01 1.858657161577E+00 6.527968977563E+00 -1.528042208796E+01 1.168945029226E+01 1.233249919898E+01 -5.290783422326E+00 2.313980423014E+00 1.115085930513E+00 1.579435142804E+00 3.799976131309E+00 -1.035029720911E+01 1.290671098808E+01 7.198535107199E-01 -1.023764836134E+01 1.539237124806E+00 4.802497763778E+00 -5.517592629024E+00 -1.005893008287E+01 8.280485892906E+00 7.564664612966E+00 2.453194064913E+00 2.482904628149E+00 2.236909279221E+03
 2.072264557003E+01 2.555897221804E+01 -2.847365458516E-01 3.485764507332E+00 -5.667004076708E+00 8.650749156112E+01 1.143514493302E+01 5.007213042818E+00 -4.178517053057E+01 5.671608713993E+01 6.891730017222E+01 -1.156142315342E+01 1.250309880594E+01 -7.995518853615E+00 8.630019666448E+00 2.024805962932E+01 -4.073699464347E+01 6.667834212835E+01 -2.681731713329E+01 -3.937842073646E+01 1.100784195068E+00 3.690318461014E+01 -4.760501420323E+01 -5.802917206780E+01 4.388572446789E+01 4.958261173135E+01 9.084319967789E+00 1.835342512276E+01 -1.388280697139E+01 2.154879235173E+03
 -3.387331644326E-01 7.957573714407E+00 5.810832105986E+00 9.872693033090E-01 -3.109127135239E+00 1.124672480705E+01 1.123003935733E+00 5.646152175213E+00 -1.183355476358E+01 7.861897236424E+00 7.830710234989E+00 -4.227151541394E+00 1.485683101031E+00 1.413206728715E+00 1.016078450172E+00 2.465630872267E+00 -7.399073964594E+00 8.458440031080E+00 1.955284485494E+00 -7.385038365000E+00 1.333734122323E+00 2.555349328720E+00 -2.691043959564E+00 -6.303265907051E+00 5.371294699907E+00 4.455145037915E+00 1.788191370684E+00 1.356745285878E+00 -2.907945424279E+00 -8.416973095213E+00 2.238619035797E+03
 9.710666298503E+00 1.003027441127E+01 -1.475736860372E+00 1.390253429851E+00 -1.912578790859E+00 3.760589187345E+01 5.054328954685E+00 1.017735521858E+00 -1.666840105530E+01 2.453296495931E+01 3.021712783554E+01 -4.393865091231E+00 5.468195705409E+00 -4.048642901175E+00 3.774339610740E+00 8.839519772528E+00 -1.721267558236E+01 2.902631514367E+01 -1.292209335185E+01 -1.658580861141E+01 2.033327785833E-01 1.656277004613E+01 -2.150655507624E+01 -2.550860402660E+01 1.915267102260E+01 2.201221890483E+01 3.806739194789E+00 8.216520674410E+00 -5.775788935190E+00 -3.800754662490E+01 -3.394541526845E+00 2.223967061481E+03
 -3.468875607524E+00 -7.061077640006E+00 -1.873529424926E+00 -9.265546142226E-01 2.011469001056E+00 -1.869950155490E+01 -2.346619716661E+00 -2.724568895367E+00 1.113693261639E+01 -1.241325229440E+01 -1.451462311933E+01 3.397658304612E+00 -2.655419578141E+00 9.168862426955E-01 -1.829209373230E+00 -4.321303787422E+00 9.484631521895E+00 -1.432542499196E+01 3.997514444704E+00 9.256644948762E+00 -6.310966086434E-01 -7.231211210773E+00 9.132468696877E+00 1.212290692730E+01 -9.368212550013E+00 -1.005357761485E+01 -2.164280580947E+00 -3.623432815879E+00 3.365706907942E+00 1.766467420198E+01 2.191508503346E+00 7.700910526553E+00 2.237066866763E+03
 -1.647365777791E+00 1.124157738083E+01 9.188490884565E+00 1.371646757840E+00 -4.618678630141E+00 1.319397181280E+01 1.160890620153E+00 8.635914557924E+00 -1.648469093507E+01 9.423801000475E+00 8.715831265439E+00 -6.063689004857E+00 1.682230586276E+00 2.665030549075E+00 1.148561039515E+00 2.826026556433E+00 -9.517903258592E+00 9.817844201051E+00 4.512269284529E+00 -9.591220801133E+00 2.044913010950E+00 2.077046831129E+00 -1.730903674970E+00 -6.880476724894E+00 6.156328025849E+00 4.411574270134E+00 2.348001501394E+00 1.167507126854E+00 -3.867960903906E+00 -8.747314014368E+00 -3.071862467758E+00 -3.351003285446E+00 2.521725390355E+00 2.236466842502E+03
 -3.955952268700E+00 2.132260446241E+01 1.826016362634E+01 2.607109553302E+00 -8.940592406886E+00 2.309795342734E+01 1.921331107214E+00 1.700947469225E+01 -3.120781018078E+01 1.666398383122E+01 1.487078681468E+01 -1.162652735109E+01 2.904427425107E+00 5.538303600939E+00 1.971233357649E+00 4.881359310617E+00 -1.747714875670E+01 1.715659369066E+01 9.885837726759E+00 -1.760177210103E+01 4.029785906276E+00 2.835188926503E+00 -1.752840483216E+00 -1.160984844386E+01 1.067713979267E+01 7.001373950323E+00 4.323706399442E+00 1.679638524303E+00 -7.152833201940E+00 -1.430788863097E+01 -5.797470199964E+00 -5.301527485266E+00 4.391659694739E+00 -8.407053863816E+00 2.224695908359E+03
 -4.819317801022E+00 -1.652926104099E+01 -7.248066308552E+00 -2.122975085131E+00 5.361399764837E+00 -3.614091279214E+01 -4.309050496438E+00 -8.364592867289E+00 2.550269847317E+01 -2.429851353891E+01 -2.735219962924E+01 8.257825333712E+00 -5.044514712282E+00 2.468640116860E-01 -3.469610338498E+00 -8.248797588221E+00 1.963803131850E+01 -2.755875982177E+01 4.346405191176E+00 1.930082005739E+01 -1.957576350773E+00 -1.258354952687E+01 1.547889610967E+01 2.266183187060E+01 -1.789971678571E+01 -1.819565355746E+01 -4.560992780779E+00 -6.364107633140E+00 7.192233161725E+00 3.242895247985E+01 4.939392661392E+00 1.392457425826E+01 -7.238278445061E+00 6.075397125626E+00 1.093458327462E+01 2.226407284905E+03
 2.522001894044E+01 2.932266794832E+01 -1.683719761239E+00 4.004890674697E+00 -6.200769797355E+00 1.025795735460E+02 1.362211872767E+01 4.760902729029E+00 -4.811949567468E+01 6.716421794889E+01 8.195507664046E+01 -1.308570691968E+01 1.484739395858E+01 -1.000405948323E+01 1.026022158657E+01 2.405329341535E+01 -4.780173542230E+01 7.907939093983E+01 -3.301286859598E+01 -4.621002178406E+01 1.024906608307E+00 4.424305622518E+01 -5.722985381433E+01 -6.907602780514E+01 5.209587745506E+01 5.923844187478E+01 1.064558480446E+01 2.198311362510E+01 -1.623836678190E+01 -1.025564423972E+02 -9.723775345192E+00 -4.541630158346E+01 2.095951696858E+01 -9.911529762112E+00 -1.609646697772E+01 3.826608182241E+01 2.118482788517E+03
 -2.357669954485E+00 -1.354415850206E+00 1.102357804676E+00 -2.043074305397E-01 5.185740827957E-02 -7.492086339592E+00 -1.059312278881E+00 4.837672396375E-01 2.438804908560E+00 -4.821962755519E+00 -6.179615423992E+00 4.994984184402E-01 -1.109385260642E+00 1.146732320151E+00 -7.670422626868E-01 -1.784115532864E+00 3.144279204903E+00 -5.818264290470E+00 3.327424389273E+00 2.991596498862E+00 1.235773255791E-01 -3.611653612644E+00 4.768944224613E+00 5.257015899654E+00 -3.864589189105E+00 -4.662745498425E+00 -6.741627509576E-01 -1.780633511556E+00 9.973766526477E-01 7.955526367173E+00 5.203910956887E-01 3.577641787209E+00 -1.550625464836E+00 4.032755420001E-01 5.121035666683E-01 -2.678157022029E+00 9.553928124676E+00 2.240062708853E+03
 7.478717104821E-01 7.451105509918E+00 4.521616068182E+00 9.368529726585E-01 -2.701479032946E+00 1.301167729183E+01 1.432578822725E+00 4.640754805009E+00 -1.125256754552E+01 8.895234280436E+00 9.475735211698E+00 -3.860434177857E+00 1.771850968891E+00 7.039416338061E-01 1.212791842403E+00 2.913835470679E+00 -7.746449052279E+00 9.844105014879E+00 2.047663957528E-01 -7.676910168721E+00 1.094661810173E+00 3.800810970692E+00 -4.434119530015E+00 -7.748210717149E+00 6.332613793161E+00 5.898006167881E+00 1.837469508523E+00 1.955426361792E+00 -2.943350825743E+00 -1.077225702732E+01 -2.145370028207E+00 -4.506607287729E+00 2.569900071592E+00 -2.814811752011E+00 -5.212532110544E+00 5.429385610723E+00 -1.259976050872E+01 7.966574344795E-01 2.238652115687E+03
 -6.391457429058E+00 -5.297407449890E+00 1.826292410160E+00 -7.548241735036E-01 7.676080050957E-01 -2.280919144878E+01 -3.127694580121E+00 1.818620718233E-01 9.034293967507E+00 -1.477063210775E+01 -1.850667044092E+01 2.223607006625E+00 -3.343905628334E+00 2.873819505732E+00 -2.301629992066E+00 -5.383950169393E+00 1.008403607512E+01 -1.762612881639E+01 8.732568063407E+00 9.664794776005E+00 6.395298569912E-02 -1.041702085289E+01 1.361721659767E+01 1.566278788848E+01 -1.166864540103E+01 -1.366660734783E+01 -2.203012453139E+00 -5.152420100233E+00 3.307426548221E+00 2.349380369683E+01 1.870587850357E+00 1.048387892908E+01 -4.685518657025E+00 1.716551900761E+00 2.556545322913E+00 -8.322373974417E+00 2.814222201419E+01 -2.252482657980E+00 2.605639810679E+00 2.234308804142E+03
 8.716661806786E-01 -1.411879586963E+01 -1.062682163824E+01 -1.756392621860E+00 5.581907565931E+00 -1.935496661333E+01 -1.906321676546E+00 -1.026143322611E+01 2.098922383092E+01 -1.354822657971E+01 -1.336635862022E+01 7.559584924178E+00 -2.550319833487E+00 -2.655733806879E+00 -1.732649163177E+00 -4.220093560626E+00 1.295195793451E+01 -1.454067040658E+01 -3.909527281802E+00 1.291011976113E+01 -2.427364226248E+00 -4.182450667484E+00 4.279169934230E+00 1.071881954941E+01 -9.216290079804E+00 -7.458914721521E+00 -3.129693990218E+00 -2.236036672702E+00 5.094226097971E+00 1.419834144380E+01 3.946605025453E+00 5.679989462255E+00 -3.763480898815E+00 5.495285501022E+00 1.035897116241E+01 -8.581434455150E+00 1.639751217188E+01 -8.401288027412E-01 3.766038211035E+00 -3.079810794604E+00 2.233871984145E+03
 1.124491962868E+00 -1.329037024667E+01 -1.020076305824E+01 -1.642017078883E+00 5.304839400493E+00 -1.749471820881E+01 -1.676509167129E+00 -9.777093057691E+00 1.967318868285E+01 -1.232319772382E+01 -1.195867708248E+01 7.115985919442E+00 -2.284374438816E+00 -2.681014776943E+00 -1.559211972997E+00 -3.801745946255E+00 1.192791731398E+01 -1.311773394084E+01 -4.118174447547E+00 1.193329351098E+01 -2.311857332786E+00 -3.532538119712E+00 3.493715255239E+00 9.559587565225E+00 -8.290275725946E+00 -6.535708959996E+00 -2.900738085895E+00 -1.907541147018E+00 4.739264899631E+00 1.254615648291E+01 3.688720906481E+00 4.973724283431E+00 -3.389051282986E+00 5.163532106159E+00 9.796080596840E+00 -7.828478473677E+00 1.441575017938E+01 -7.072872990956E-01 3.485086127285E+00 -2.673375050687E+00 -6.551450212661E+00 2.234701073313E+03
 -1.398753457451E+00 1.550519978613E+01 1.199123433135E+01 1.915070884932E+00 -6.208359656058E+00 2.021836455049E+01 1.926199840704E+00 1.147095386339E+01 -2.294046673829E+01 1.424905564766E+01 1.378114894938E+01 -8.315746920884E+00 2.636709368242E+00 3.174926171002E+00 1.796996077251E+00 4.386633555078E+00 -1.385129994363E+01 1.514875846134E+01 4.939009422815E+00 -1.385911476254E+01 2.713706914944E+00 4.009109647190E+00 -3.921323248172E+00 -1.100285512479E+01 9.568905704634E+00 7.483868858429E+00 3.370545236173E+00 2.170359851188E+00 -5.509154725763E+00 -1.440438255615E+01 -4.299790104595E+00 -5.694463049881E+00 3.912510477557E+00 -6.031918812695E+00 -1.144772883990E+01 9.069852194981E+00 -1.654157484217E+01 7.998212677366E-01 -4.050738975291E+00 3.045636898360E+00 7.634759542054E+00 7.168191780623E+00 2.232484509176E+03
 -5.633267964223E+00 -2.275567023960E+01 -1.081305213930E+01 -2.913817080093E+00 7.573346738666E+00 -4.737530749389E+01 -5.573193884426E+00 -1.211326417523E+01 3.496123708539E+01 -3.201600083869E+01 -3.562253313923E+01 1.145019660375E+01 -6.578084887131E+00 -2.587599581959E-01 -4.533540077242E+00 -1.078133262545E+01 2.627691383325E+01 -3.613249853923E+01 4.441802048147E+00 2.585890979171E+01 -2.832921167068E+00 -1.598336666193E+01 1.948791983277E+01 2.945688295135E+01 -2.340574825034E+01 -2.341958745231E+01 -6.125975625939E+00 -8.112641756423E+00 9.698620330168E+00 4.189965508898E+01 6.744022553858E+00 1.791239012688E+01 -9.478849232283E+00 8.426513116632E+00 1.526249584494E+01 -1.912399507343E+01 4.936178653529E+01 -3.392237618847E+00 7.307606341843E+00 -1.065907982363E+01 -1.175670180671E+01 -1.075015586123E+01 1.246899491435E+01 2.215471553226E+03
 -8.986507729649E+00 -2.367978779770E+01 -8.465947968475E+00 -3.070157197795E+00 7.251629734109E+00 -5.649448174942E+01 -6.911714749993E+00 -1.065466522620E+01 3.688779498394E+01 -3.783320445731E+01 -4.332563639267E+01 1.159655600833E+01 -7.943740748403E+00 1.520112122628E+00 -5.489312750245E+00 -1.298668615089E+01 2.974615736578E+01 -4.324104461052E+01 9.389272901091E+00 2.915144046460E+01 -2.473076885856E+00 -2.073963893374E+01 2.587141230443E+01 3.606331683004E+01 -2.815797348821E+01 -2.943096937708E+01 -6.854787744368E+00 -1.044528702442E+01 1.075114058528E+01 5.204760151888E+01 7.189721455376E+00 2.252876017510E+01 -1.137970246007E+01 8.582178105734E+00 1.524795455392E+01 -2.225385640494E+01 6.155829081047E+01 -4.434767418536E+00 8.153701564733E+00 -1.361609873181E+01 -1.246050215498E+01 -1.127355824695E+01 1.304902538028E+01 -2.926791875863E+01 2.206296181096E+03
 7.319487615426E+00 5.559281515328E+00 -2.579146068977E+00 7.914817904699E-01 -6.648485566734E-01 2.528666041105E+01 3.486987281261E+00 -6.750691520539E-01 -9.541333613451E+00 1.640279938642E+01 2.061817341300E+01 -2.223818056887E+00 3.706726636421E+00 -3.347854013044E+00 2.572267460094E+00 5.994764393528E+00 -1.101944761674E+01 1.957734510366E+01 -1.012560322596E+01 -1.058320934800E+01 -1.903975986964E-01 1.172155132601E+01 -1.538715897821E+01 -1.748985165889E+01 1.296434876880E+01 1.533922876063E+01 2.408079081684E+00 5.794215569848E+00 -3.613494396794E+00 -2.629903825740E+01 -1.984278820614E+00 -1.176697277979E+01 5.206085289656E+00 -1.731551261396E+00 -2.539553004043E+00 9.169195008631E+00 -3.147462251013E+01 2.544974747304E+00 -2.837199504390E+00 7.384400972813E+00 3.293340116596E+00 2.805605055641E+00 -3.198450286198E+00 1.168468802341E+01 1.499642468608E+01 2.232575448350E+03
 -2.169910404875E+01 -2.605323861778E+01 8.600666975778E-01 -3.552163482432E+00 5.652613292986E+00 -8.950234210503E+01 -1.185253597926E+01 -4.681840232707E+00 4.264854577533E+01 -5.865141842758E+01 -7.139647502072E+01 1.170167905761E+01 -1.294201327524E+01 8.479905547712E+00 -8.940946612627E+00 -2.096868935585E+01 4.193510194202E+01 -6.898763699649E+01 2.824338619149E+01 4.055053731984E+01 -1.019439224000E+00 -3.837587452297E+01 4.957387792293E+01 6.014718937306E+01 -4.542549831040E+01 -5.148300338653E+01 -9.349660536734E+00 -1.907719729525E+01 1.427831371075E+01 8.919902217964E+01 8.602348157022E+00 3.946770548250E+01 -1.827941671397E+01 8.854985762910E+00 1.444974574171E+01 -3.346977252697E+01 1.064050212013E+02 -8.281770430824E+00 1.107277056838E+01 -2.442961432648E+01 -1.451894782384E+01 -1.279142323772E+01 1.468355061453E+01 -4.321005142775E+01 -5.376820884129E+01 2.732053128892E+01 2.148305491323E+03
 -1.552506325723E+01 -1.382355456849E+01 3.958557389929E+00 -1.938534531211E+00 2.202513564317E+00 -5.676901619790E+01 -7.725248256104E+00 -4.430602235189E-02 2.330263057930E+01 -3.690852680083E+01 -4.593528025148E+01 5.830148119241E+00 -8.289148606034E+00 6.809974150954E+00 -5.730852387190E+00 -1.339669946274E+01 2.535487691095E+01 -4.386344143033E+01 2.109058417409E+01 2.439380715672E+01 4.945065142707E-02 -2.564651681124E+01 3.348485989012E+01 3.886536929571E+01 -2.900114515246E+01 -3.381086036684E+01 -5.575873296873E+00 -1.269810836838E+01 8.412819270465E+00 5.818242193977E+01 4.792688351782E+00 2.593357759808E+01 -1.165003956277E+01 4.479477634261E+00 6.863749489981E+00 -2.079605598800E+01 6.958133971626E+01 -5.553848613436E+00 6.582713075786E+00 -1.618420544002E+01 -7.982919932009E+00 -6.908882002876E+00 7.892520379911E+00 -2.664332252911E+01 -3.384701405584E+01 1.816220869243E+01 -6.043330057015E+01 2.200905423774E+03
 1.889166070798E+01 2.147712856127E+01 -1.525197748018E+00 2.945476342859E+00 -4.469361922760E+00 7.613388322103E+01 1.013673199855E+01 3.301197339784E+00 -3.534598294287E+01 4.978892998459E+01 6.088539557458E+01 -9.575586205690E+00 1.103376260607E+01 -7.577939727584E+00 7.614832478218E+00 1.785475157889E+01 -3.536311709557E+01 5.869856813554E+01 -2.479585293053E+01 -3.414725306654E+01 7.083381730843E-01 3.296463193844E+01 -4.266216966199E+01 -5.132487248074E+01 3.868496121363E+01 4.406212194298E+01 7.860173579659E+00 1.637336203703E+01 -1.197282376540E+01 -7.625255261396E+01 -7.154850231655E+00 -3.378265328078E+01 1.556142445551E+01 -7.261461347229E+00 -1.172064098010E+01 2.836392762974E+01 -9.102703535589E+01 7.115251910879E+00 -9.307746475472E+00 2.092999919332E+01 1.202988939443E+01 1.058384969472E+01 -1.213632155773E+01 3.658192123529E+01 4.570244250326E+01 -2.345652248622E+01 7.914210051567E+01 5.179882456115E+01 2.173149456155E+03
 -1.471488475509E+00 -3.493306029867E-01 1.048627912451E+00 -6.198696311446E-02 -1.595701587564E-01 -3.930944709003E+00 -5.803055291950E-01 6.634337258481E-01 7.646234170567E-01 -2.490120565342E+00 -3.325999511720E+00 4.222273475386E-02 -5.915368647438E-01 7.938150431168E-01 -4.107206965027E-01 -9.500018116858E-01 1.470887505255E+00 -3.057423182070E+00 2.179074456595E+00 1.389923611926E+00 1.617411638096E-01 -2.069606134401E+00 2.780229182421E+00 2.851263565285E+00 -2.048827813274E+00 -2.602441481334E+00 -3.064294999937E-01 -1.013550943138E+00 4.383059191164E-01 4.391761961418E+00 1.812582732379E-01 1.999177317140E+00 -8.187003045643E-01 5.013385105908E-02 -4.504675205442E-02 -1.339639886064E+00 5.286884921963E+00 -4.530780815303E-01 3.555698012528E-01 -1.277885889177E+00 -2.771471993458E-01 -2.055393027795E-01 2.250838063837E-01 -1.669487244034E+00 -2.280422862966E+00 1.443881707616E+00 -4.574429655647E+00 -3.126699416370E+00 3.947943245412E+00 2.240579138337E+03
 -2.064976459572E+00 -1.248641059652E+00 9.124092239567E-01 -1.847911410097E-01 7.092529673130E-02 -6.674624597783E+00 -9.372328826729E-01 3.802414584497E-01 2.221627251122E+00 -4.285886156276E+00 -5.485253960669E+00 4.730850764729E-01 -9.875103023786E-01 1.001219619479E+00 -6.796858946719E-01 -1.585930116714E+00 2.807489504459E+00 -5.164050331441E+00 2.909357872292E+00 2.677839894821E+00 9.582464618725E-02 -3.192688230821E+00 4.211695436396E+00 4.659496065511E+00 -3.433307833846E+00 -4.125887479522E+00 -6.047523156873E-01 -1.573386791985E+00 8.952598221288E-01 7.051649282753E+00 4.726821486368E-01 3.166755699967E+00 -1.376228352029E+00 3.733686530694E-01 4.902357767449E-01 -2.384139283864E+00 8.464415239321E+00 -6.927693518231E-01 7.119547448569E-01 -1.988523310503E+00 -7.633175994206E-01 -6.469780886446E-01 7.315100509592E-01 -3.032743598389E+00 -3.954225700655E+00 2.253315171181E+00 -7.339156741111E+00 -4.912350579682E+00 6.299970145075E+00 -3.987371023399E-01 2.240236065834E+03
 -1.513204697487E+00 -1.043153059559E+01 -5.885973728277E+00 -1.335691012084E+00 3.682087500462E+00 -1.915126210678E+01 -2.179551264151E+00 -6.247561116383E+00 1.591503561085E+01 -1.314152044027E+01 -1.415430711799E+01 5.354206450514E+00 -2.623912919792E+00 -7.680764040988E-01 -1.818847045926E+00 -4.321841034684E+00 1.127438177343E+01 -1.465364060496E+01 3.528451622302E-01 1.109841930367E+01 -1.456760308526E+00 -5.883047624496E+00 6.956774182506E+00 1.164101100917E+01 -9.410904155828E+00 -8.981748074367E+00 -2.643661420725E+00 -3.023402671553E+00 4.226485330617E+00 1.624630507568E+01 3.041022163306E+00 6.854505875735E+00 -3.833346395704E+00 3.959154299041E+00 7.241252247095E+00 -7.983124919023E+00 1.907650430464E+01 -1.232273380615E+00 3.185293973020E+00 -4.020843257640E+00 -5.329578497659E+00 -4.913504707849E+00 5.714048572030E+00 -1.062904948254E+01 -1.197477628304E+01 4.352966699889E+00 -1.673273941364E+01 -1.008390016064E+01 1.411928391216E+01 -5.811049538841E-01 -1.122451774877E+00 2.236389833590E+03
 -9.577675179101E+00 1.094207562221E-01 8.240751803965E+00 -1.157384908775E-01 -1.913421158814E+00 -2.216580336306E+01 -3.427372339082E+00 5.769032726705E+00 1.451704092693E+00 -1.367006650201E+01 -1.918068141912E+01 -8.876386490404E-01 -3.413070530882E+00 5.591813990409E+00 -2.328804423737E+00 -5.400536912934E+00 7.314193757131E+00 -1.722569884968E+01 1.459661313264E+01 6.754193769822E+00 1.377705997711E+00 -1.262928043527E+01 1.714984717726E+01 1.652103219061E+01 -1.166866650532E+01 -1.544601253024E+01 -1.440030329145E+00 -6.144168014668E+00 1.931692289804E+00 2.585993237248E+01 5.260153234429E-01 1.188310881479E+01 -4.632502625272E+00 -5.422287613657E-01 -1.990493519115E+00 -7.199975560520E+00 3.131898390134E+01 -2.765061470679E+00 1.647089730652E+00 -7.620248098651E+00 -5.720031553925E-01 -2.528805757212E-01 1.823185530070E-01 -8.888301168867E+00 -1.276738000352E+01 8.799973099301E+00 -2.703650085999E+01 -1.878656236719E+01 2.333988391767E+01 -1.670957967047E+00 -2.403942329754E+00 -2.991057076038E+00 2.230528296494E+03
 4.326796052636E+01 1.184301844424E+02 4.415513386150E+01 1.533755620189E+01 -3.665461594458E+01 2.789598622392E+02 3.399658770137E+01 5.455260706634E+01 -1.842357386217E+02 1.867358027524E+02 2.134407910173E+02 -5.828989402910E+01 3.920265908429E+01 -6.733343769051E+00 2.702070337231E+01 6.402537261854E+01 -1.475010260870E+02 2.132695898571E+02 -4.439612608178E+01 -1.445740149700E+02 1.270407899845E+01 1.016040292427E+02 -1.264632269030E+02 -1.774897529443E+02 1.388704751529E+02 1.444910331551E+02 3.402032332735E+01 5.119001425536E+01 -5.337563463395E+01 -2.558861891935E+02 -3.588633298713E+01 -1.106101117704E+02 5.611242904349E+01 -4.306345702303E+01 -7.661379517727E+01 1.100720441615E+02 -3.026170714949E+02 2.170062811568E+01 -4.046860137535E+01 6.667373628448E+01 6.213378238481E+01 5.635924989908E+01 -6.522483320815E+01 1.450233957478E+02 1.708810303349E+02 -7.360387820710E+01 2.643647842963E+02 1.660872214166E+02 -2.245303660618E+02 1.112077899599E+01 1.931713124438E+01 5.964027087027E+01 6.153481575205E+01 1.396242199222E+03