#BIOSYM hessian 1
@Type: Hessian Update
@Units
 distance: 	A
 energy: 	Kcal/Mol
#header
@natom 19

#label
L1      L2      L3      L4      L5      L6      L7      L8      L9      L10     L11     L12     L13     L14     L15     L16     L17     L18     L19

#element
Li Li Li Li Li Li Li Li Li Li Li Li Li Li Li Li Li Li Li

#matrix
57
 2.216099244461E+03
 -5.347655086899E+01 2.130078455841E+03
 -2.905165524728E+01 -6.170184140067E+01 2.206986252906E+03
 -2.942482565403E+00 -3.145776361091E+00 -2.729388830622E+00 2.242652541677E+03
 7.431172404009E+01 1.539943927802E+02 8.575528805905E+01 4.416700159221E+00 2.026758281734E+03
 -3.358278545463E+01 -6.802788762887E+01 -3.840431453712E+01 -9.482691861877E-01 9.459950636156E+01 2.199578748601E+03
 7.081856112592E+00 1.733847097970E+01 8.774325890447E+00 2.209202986993E+00 -2.406618993320E+01 1.153883071036E+01 2.239686597223E+03
 -4.559412480558E+01 -9.806318301092E+01 -5.341641363851E+01 -5.106579524350E+00 1.362733322288E+02 -6.143565677578E+01 1.324889691708E+01 2.156894309016E+03
 4.814369953300E+01 1.026702676128E+02 5.621178610005E+01 4.809087588294E+00 -1.426919585356E+02 6.403899756835E+01 -1.435677823452E+01 8.856955159302E+01 2.147574021466E+03
 -3.301817138255E+01 -7.047230220555E+01 -3.856340501098E+01 -3.336367382173E+00 9.794134633782E+01 -4.397523132939E+01 9.822612945316E+00 -6.074709928514E+01 6.398507513575E+01 2.196953214789E+03
 5.249191360958E+01 1.123825796745E+02 6.137724494704E+01 5.529043630287E+00 -1.561766329753E+02 7.024152017483E+01 -1.547635443099E+01 9.659674040621E+01 -1.018226737418E+02 6.984164761237E+01 2.129760350073E+03
 2.903705512353E+01 6.092276698660E+01 3.368520567848E+01 2.235825950665E+00 -8.469101866547E+01 3.767371578830E+01 -9.077947732277E+00 5.333219023637E+01 -5.596887911067E+01 3.840985038229E+01 -6.121238560593E+01 2.207484051969E+03
 5.146084378582E+00 1.171497841077E+01 6.174903074117E+00 1.010480641753E+00 -1.627052725733E+01 7.547119051378E+00 -1.220111434836E+00 9.538760514214E+00 -1.018092440913E+01 6.975073236157E+00 -1.104604315892E+01 -6.264435660113E+00 2.239849753084E+03
 2.118769274109E+01 4.401173823999E+01 2.447024537897E+01 1.326277832375E+00 -6.118220873712E+01 2.707245104203E+01 -6.820665060326E+00 3.885883643815E+01 -4.071466047234E+01 2.794312892321E+01 -4.454104859190E+01 -2.419481809174E+01 -4.626075087730E+00 2.223368058979E+03
 2.824484495671E+01 5.558004146404E+01 3.192256910699E+01 -3.072028081296E-01 -7.730836409930E+01 3.316035061558E+01 -1.040844212610E+01 5.149811334914E+01 -5.339527725488E+01 3.668293344134E+01 -5.868939098121E+01 -3.108423287001E+01 -6.550434262273E+00 -2.215092400387E+01 2.214845859178E+03
 -2.384181032737E+01 -4.578039987776E+01 -2.668593930533E+01 1.025073855102E+00 6.369217662693E+01 -2.691582456575E+01 9.272676818962E+00 -4.335327908645E+01 4.474886138189E+01 -3.075509576691E+01 4.927749783392E+01 2.581648822209E+01 5.670282372837E+00 1.827100746624E+01 2.064039365032E+01 2.224802694071E+03
 -1.009691822762E+01 -2.304438374482E+01 -1.213165624467E+01 -2.024740765954E+00 3.200682644034E+01 -1.486315136395E+01 2.366308090792E+00 -1.872534585662E+01 1.999185989873E+01 -1.369705320637E+01 2.169388153324E+01 1.230792106729E+01 1.947547473672E+00 9.102173031361E+00 1.292744243077E+01 -1.120689014414E+01 2.237042420503E+03
 -3.059791177185E+00 -5.740635991765E+00 -3.383697105342E+00 2.312859857240E-01 7.981520605060E+00 -3.328956615735E+00 1.257429127015E+00 -5.535155951914E+00 5.705749805072E+00 -3.919179091741E+00 6.262899677125E+00 3.284873154898E+00 7.445029317479E-01 2.280583096112E+00 2.465108207849E+00 -1.855580609571E+00 -1.482095584351E+00 2.240673094488E+03
 1.181047010640E+01 2.677254835054E+01 1.414810231406E+01 2.244724531555E+00 -3.718662988310E+01 1.721269630573E+01 -2.846806950762E+00 2.188356237220E+01 -2.333270727162E+01 1.598767922544E+01 -2.533139252841E+01 -1.433017109477E+01 -2.300727307228E+00 -1.057743533082E+01 -1.490950656548E+01 1.288455961139E+01 4.497157072427E+00 1.695224878476E+00 2.235537204379E+03
 -3.447116685157E+01 -7.245957583985E+01 -3.999290580478E+01 -2.721381372874E+00 1.007080063119E+02 -4.485814331264E+01 1.074399101500E+01 -6.328796578384E+01 6.648537493946E+01 -4.561539218946E+01 7.262118234053E+01 3.971205346464E+01 7.420393401963E+00 2.873774673258E+01 3.698085919543E+01 -3.070776145481E+01 -1.459950804398E+01 -3.824898501844E+00 1.699221642285E+01 2.193788518722E+03
 -5.445173137176E+01 -1.140022242723E+02 -6.309240949822E+01 -4.010744235699E+00 1.584673602480E+02 -7.042142025463E+01 1.714588753748E+01 -9.995792536532E+01 1.048896457235E+02 -7.197783184625E+01 1.146761109570E+02 6.251190833961E+01 1.177800925549E+01 4.525386220348E+01 5.795503742100E+01 -4.804103058089E+01 -2.316050335781E+01 -6.037863649490E+00 2.694817738782E+01 -7.425462136784E+01 2.123853094381E+03
 -1.866232932515E+01 -3.651952526164E+01 -2.105070379908E+01 3.360024743236E-01 5.080266843206E+01 -2.171582804677E+01 6.960010797833E+00 -3.401283304647E+01 3.522126181125E+01 -2.420141244819E+01 3.874532164725E+01 2.045215644735E+01 4.353330234753E+00 1.456586483258E+01 1.695875762451E+01 -1.340945924986E+01 -8.590191249362E+00 -1.607364984688E+00 9.902058034181E+00 -2.437068025294E+01 -3.814614451402E+01 2.229800401041E+03
 -3.840912375471E+01 -8.119275983964E+01 -4.468817699217E+01 -3.358763645216E+00 1.128556023205E+02 -5.040929041209E+01 1.175534529405E+01 -7.059672186759E+01 7.420754961666E+01 -5.091686901498E+01 8.108734777291E+01 4.437146409695E+01 8.211338624203E+00 3.222131521445E+01 4.179189084514E+01 -3.485475414957E+01 -1.613000930177E+01 -4.434994961822E+00 1.880013644416E+01 -5.275741449671E+01 -8.314024893967E+01 -2.753144436383E+01 2.181918094241E+03
 -3.039250554635E+01 -6.055599190870E+01 -3.452309595775E+01 -1.761369337398E-01 8.422071187697E+01 -3.639148745423E+01 1.087694317987E+01 -5.549324275219E+01 5.766858154499E+01 -3.961102754239E+01 6.333030446348E+01 3.372299881640E+01 6.955482578919E+00 2.411907209287E+01 2.884414365701E+01 -2.312650418624E+01 -1.371452590312E+01 -2.806685106419E+00 1.584456936439E+01 -4.013643447452E+01 -6.294605924037E+01 -1.884690378361E+01 -4.524687817846E+01 2.208999927335E+03
 2.308102773109E+01 4.647993555226E+01 2.632422927805E+01 4.597148428147E-01 -6.463309494962E+01 2.810392436443E+01 -8.055340210481E+00 4.218481881031E+01 -4.393608211957E+01 3.017080746923E+01 -4.819068542715E+01 -2.580620723710E+01 -5.221264131400E+00 -1.849325711604E+01 -2.245318885088E+01 1.813593802416E+01 1.029308483645E+01 2.205195043155E+00 -1.190695280527E+01 3.066655060602E+01 4.816992267875E+01 1.470115475609E+01 3.455228073996E+01 2.470381113804E+01 2.221746945968E+03
 -2.532842307611E+01 -5.232515069889E+01 -2.919136143387E+01 -1.395545445226E+00 7.274568199963E+01 -3.208959499308E+01 8.272437021750E+00 -4.643048572324E+01 4.858925465383E+01 -3.335243258437E+01 5.319345360657E+01 2.880582642574E+01 5.565870621133E+00 2.079209675134E+01 2.616232299457E+01 -2.151097791762E+01 -1.095149577940E+01 -2.687464097346E+00 1.271752082724E+01 -3.425172798561E+01 -5.388598734760E+01 -1.718578072779E+01 -3.840562160425E+01 -2.853092300427E+01 2.191238219429E+01 2.216133354004E+03
 5.694542053010E+01 1.227240632459E+02 6.677503855069E+01 6.547036416784E+00 -1.705424981875E+02 7.696375442830E+01 -1.643832954080E+01 1.048831891658E+02 -1.106902051184E+02 7.591753719175E+01 -1.207134118610E+02 -6.669402056494E+01 -1.188299157992E+01 -4.863060738243E+01 -6.461268212058E+01 5.445974715326E+01 2.332027653168E+01 6.974921717427E+00 -2.726460800268E+01 7.917354405747E+01 1.250428488901E+02 4.267934884632E+01 8.826058595871E+01 6.957989818914E+01 -5.287346370734E+01 5.811638980022E+01 2.109831384736E+03
 3.108826742527E+01 6.436539312175E+01 3.586819724559E+01 1.813803320595E+00 -8.948767297169E+01 3.951946423544E+01 -1.008767914601E+01 5.701210497240E+01 -5.967766199940E+01 4.096455647672E+01 -6.533926635593E+01 -3.539719753428E+01 -6.813846946864E+00 -2.558128983499E+01 -3.229132148691E+01 2.659712460568E+01 1.340017276741E+01 3.349050039840E+00 -1.556899061218E+01 4.213615943994E+01 6.626255864714E+01 2.121068317936E+01 4.718474315152E+01 3.518037414718E+01 -2.701144074976E+01 3.040654097388E+01 -7.134449875159E+01 2.203450158987E+03
 6.192131241637E+00 1.356013354976E+01 7.308710745026E+00 8.555631890680E-01 -1.883991880334E+01 8.573123054984E+00 -1.696480991321E+00 1.142481383098E+01 -1.209792484677E+01 8.294508240570E+00 -1.317199180757E+01 -7.335001917764E+00 -1.265489945180E+00 -5.366962117774E+00 -7.269270641885E+00 6.177674160302E+00 2.481206672466E+00 7.953816597838E-01 -2.908736843368E+00 8.697388497799E+00 1.376044173755E+01 4.811431084008E+00 9.679227858201E+00 7.795198956055E+00 -5.900719662977E+00 6.427543592845E+00 -1.426123190848E+01 -7.884778171035E+00 2.239303287695E+03
 -6.184783454898E+01 -1.272712784947E+02 -7.116196420337E+01 -3.068218615045E+00 1.769438726520E+02 -7.788682099666E+01 2.041789185473E+01 -1.133176755786E+02 1.185053832496E+02 -8.134777939986E+01 1.297603420272E+02 7.016420215508E+01 1.365269030973E+01 5.057753773348E+01 6.329829729007E+01 -5.190338096055E+01 -2.687498146362E+01 -6.446653308619E+00 3.118827000531E+01 -8.338929110879E+01 -1.311843212012E+02 -4.156526802346E+01 -9.360010136052E+01 -6.912474840765E+01 5.313650224396E+01 -6.009056066862E+01 1.418726546173E+02 7.396485419984E+01 1.571169932089E+01 2.094799667944E+03
 -5.717407133560E+01 -1.221909367437E+02 -6.680708604479E+01 -5.880903449506E+00 1.698131704350E+02 -7.630154627096E+01 1.694534670800E+01 -1.051970409704E+02 1.108426660241E+02 -7.603265671214E+01 1.209566372412E+02 6.658347620885E+01 1.205795961682E+01 4.843869200231E+01 6.368859587265E+01 -5.342768184185E+01 -2.368114896740E+01 -6.795442706681E+00 2.764532088066E+01 -7.902614545305E+01 -1.247475079891E+02 -4.203225184888E+01 -8.823456442411E+01 -6.875407049990E+01 5.234454443693E+01 -5.783119990254E+01 1.314668930843E+02 7.103642955951E+01 1.435529124034E+01 -1.410586621660E+02 2.109154222889E+03
 3.538118712187E+01 7.512710576061E+01 4.123239286637E+01 3.311611148029E+00 -1.044140604364E+02 4.675476517506E+01 -1.069412564572E+01 6.505176459717E+01 -6.845370518622E+01 4.696183416513E+01 -7.474395996751E+01 -4.101874357473E+01 -7.522448221525E+00 -2.979424392654E+01 -3.885567534950E+01 3.247643084851E+01 1.477986444075E+01 4.115482583926E+00 -1.723558173472E+01 4.869548687545E+01 7.682349304307E+01 2.562256463991E+01 5.441842053239E+01 4.202472188516E+01 -3.204544346333E+01 3.554206785485E+01 -8.132189871629E+01 -4.367322178512E+01 -8.901580220539E+00 8.664052684284E+01 8.135615575351E+01 2.190636102809E+03
 2.124469699744E+01 4.639047101092E+01 2.505009958494E+01 2.850486307169E+00 -6.445879104263E+01 2.928665680399E+01 -5.873552615084E+00 3.919039832499E+01 -4.146754822449E+01 2.843417971585E+01 -4.517321442843E+01 -2.510803055394E+01 -4.357999964229E+00 -1.836959308980E+01 -2.480053673687E+01 2.105088509982E+01 8.543440704927E+00 2.720082385913E+00 -1.001235413859E+01 2.980525829547E+01 4.711771028414E+01 1.640518338152E+01 3.315343320889E+01 2.660873664108E+01 -2.015995821012E+01 2.198688566851E+01 -4.892054169346E+01 -2.696965243075E+01 -5.298128194635E+00 5.374149592533E+01 4.922268523317E+01 -3.050986320958E+01 2.222657128928E+03
 4.764717802908E+00 9.916266949854E+00 5.506367144922E+00 3.102387898471E-01 -1.378415519141E+01 6.106130210660E+00 -1.526588912376E+00 8.739305683831E+00 -9.161388372843E+00 6.287099668123E+00 -1.001822070070E+01 -5.449861934080E+00 -1.037975186957E+00 -3.936416054442E+00 -5.000591585919E+00 4.128320580944E+00 2.042773396576E+00 5.133461051840E-01 -2.374234352836E+00 6.466274479557E+00 1.018936001605E+01 3.290134158845E+00 7.253989488239E+00 5.442802726864E+00 -4.170180182050E+00 4.684804651128E+00 -1.093701844067E+01 -5.764947066347E+00 -1.206004150624E+00 1.139647919259E+01 1.089662514701E+01 -6.704326190380E+00 -4.129441561169E+00 2.239959814916E+03
 -2.124080870066E+01 -4.675847600659E+01 -2.513409688652E+01 -3.105883223965E+00 6.496742467039E+01 -2.963736003036E+01 5.708930386957E+00 -3.922525893753E+01 4.156670857648E+01 -2.849906956930E+01 4.525873650790E+01 2.523863442757E+01 4.310428837919E+00 1.851078834172E+01 2.523570070441E+01 -2.151322126721E+01 -8.442197894949E+00 -2.802773503525E+00 9.909931875921E+00 -2.998065315634E+01 -4.740586277322E+01 -1.670387383284E+01 -3.328475062194E+01 -2.701244783132E+01 2.043281261601E+01 -2.217399440536E+01 4.893932580774E+01 2.718063849987E+01 5.283862055300E+00 -5.424553597022E+01 -4.932880813201E+01 3.061425589059E+01 1.814601552871E+01 4.160651350733E+00 2.222777244273E+03
 3.145372214217E+01 6.623203808739E+01 3.652238268472E+01 2.564135120352E+00 -9.205379265071E+01 4.103972684640E+01 -9.750352587031E+00 5.776561315635E+01 -6.069807081631E+01 4.164490302016E+01 -6.630273389167E+01 -3.627008242505E+01 -6.756561876127E+00 -2.627074569291E+01 -3.388730834168E+01 2.817505084725E+01 1.328821186398E+01 3.527633909643E+00 -1.547199929250E+01 4.301143379054E+01 6.785299561562E+01 2.233147774783E+01 4.817760138374E+01 3.675334076632E+01 -2.807490163117E+01 3.131375005947E+01 -7.225326555289E+01 -3.850917298140E+01 -7.932943344319E+00 7.625755621099E+01 7.215071188472E+01 -4.447096347727E+01 -2.718264191607E+01 -5.911733331481E+00 2.732835617254E+01 2.201541606225E+03
 -1.031348384132E+01 -2.299033075107E+01 -1.227115987884E+01 -1.702775346930E+00 3.194114312896E+01 -1.466162602580E+01 2.647536165918E+00 -1.907765483210E+01 2.026411946985E+01 -1.389110073347E+01 2.204650291939E+01 1.235779841658E+01 2.057330060455E+00 9.097825295484E+00 1.258762626967E+01 -1.080024996207E+01 -4.023321673446E+00 -1.423678758762E+00 4.735226759025E+00 -1.469408013707E+01 -2.324366176661E+01 -8.340179271922E+00 -1.626624231561E+01 -1.342684515020E+01 1.013144562052E+01 -1.091212268036E+01 2.378365208194E+01 1.336211642875E+01 2.555498699204E+00 -2.672981903421E+01 -2.403899505922E+01 1.494827687072E+01 8.780678336836E+00 2.044462638265E+00 -8.717352759300E+00 1.338359884728E+01 2.236660174696E+03
 8.301028735245E+00 1.835745893934E+01 9.838619741782E+00 1.267575265973E+00 -2.550309511424E+01 1.166262714811E+01 -2.197960260081E+00 1.533362663763E+01 -1.626888878874E+01 1.115223877818E+01 -1.769794019539E+01 -9.900963750398E+00 -1.674184092024E+00 -7.261564745225E+00 -9.950055739555E+00 8.497483209035E+00 3.280151804766E+00 1.100282694951E+00 -3.852529894549E+00 1.173730455738E+01 1.858455626491E+01 6.592914952442E+00 1.304277473598E+01 1.064196135228E+01 -8.038062692656E+00 8.706616829869E+00 -1.913049961860E+01 -1.067520695025E+01 -2.061356959905E+00 2.130230467196E+01 1.929593518981E+01 -1.198361618532E+01 -7.084370037129E+00 -1.631177866009E+00 7.050823319086E+00 -1.070069365559E+01 3.398969433509E+00 2.238098428820E+03
 1.940386439351E+01 4.025966101913E+01 2.240555536759E+01 1.188669538197E+00 -5.597124830745E+01 2.474770788762E+01 -6.260732478589E+00 3.559123966367E+01 -3.727266931063E+01 2.558364940660E+01 -4.079784089363E+01 -2.212786121308E+01 -4.242280901882E+00 -1.599712724217E+01 -2.024962294618E+01 1.669971056907E+01 8.342669813317E+00 2.102290336160E+00 -9.695612275097E+00 2.633057851784E+01 4.142147456187E+01 1.330622258364E+01 2.948401944640E+01 2.204805649148E+01 -1.691773771696E+01 1.902101100944E+01 -4.453554123783E+01 -2.339239693798E+01 -4.917976764953E+00 4.627645136485E+01 4.435993068452E+01 -2.728121725320E+01 -1.682502936213E+01 -3.604488843282E+00 1.695109336055E+01 -2.406332987411E+01 8.329006038542E+00 -6.655318112974E+00 2.226215272916E+03
 -3.445725069477E+00 -7.728778488125E+00 -4.112160540159E+00 -6.023429509263E-01 1.073826833427E+01 -4.943329828965E+00 8.627281648159E-01 -6.380810940355E+00 6.783624682500E+00 -4.650222191144E+00 7.380953830407E+00 4.143451660978E+00 6.814117142469E-01 3.059425243315E+00 4.264485506942E+00 -3.671899602541E+00 -1.330558345229E+00 -4.904937583866E-01 1.568597089026E+00 -4.938440822855E+00 -7.805905917808E+00 -2.825388848788E+00 -5.450616380066E+00 -4.539532783903E+00 3.422801718078E+00 -3.670540051348E+00 7.950129921996E+00 4.490091754082E+00 8.523598667627E-01 -8.999278584317E+00 -8.048446622620E+00 5.009746091207E+00 2.928068903868E+00 6.877187137784E-01 -2.901230273899E+00 4.494715588562E+00 -1.388810642717E+00 1.131718157936E+00 2.798447655925E+00 2.240386650253E+03
 -1.905213082176E+01 -4.070866132047E+01 -2.226404038608E+01 -1.957024574191E+00 5.657707690733E+01 -2.541654123621E+01 5.646814613822E+00 -3.505968595221E+01 3.693316025837E+01 -2.533589248080E+01 4.031607056492E+01 2.217574713260E+01 4.019182925564E+00 1.614314844831E+01 2.122375545061E+01 -1.780822188086E+01 -7.890164431283E+00 -2.277609955280E+00 9.212235334346E+00 -2.635159542380E+01 -4.157170782973E+01 -1.400155489355E+01 -2.939441519245E+01 -2.290760462292E+01 1.744618122279E+01 -1.926858916591E+01 4.380998300553E+01 2.366072674972E+01 4.784908519467E+00 -4.700579846421E+01 -4.388959304017E+01 2.711329744688E+01 1.640160290802E+01 3.632473505532E+00 -1.643300505048E+01 2.405394672736E+01 -8.005341803761E+00 6.431546632255E+00 1.477667768540E+01 -2.678393985369E+00 2.226223515375E+03
 -1.694389703362E+01 -3.565841694058E+01 -1.967512471107E+01 -1.372628028548E+00 4.956483514975E+01 -2.208753366190E+01 5.256415859426E+00 -3.112326144968E+01 3.269069995082E+01 -2.243138220330E+01 3.572652947774E+01 1.952071798254E+01 3.642030723243E+00 1.415110685564E+01 1.824643535676E+01 -1.517305355307E+01 -7.159056569470E+00 -1.915939081386E+00 8.337090292469E+00 -2.318901068735E+01 -3.654771101955E+01 -1.201730581289E+01 -2.593917349437E+01 -1.978522704109E+01 1.512174833183E+01 -1.686056144747E+01 3.892259039544E+01 2.072648720699E+01 4.274734756439E+00 -4.106906813345E+01 -3.887223585510E+01 2.395801224590E+01 1.464280561196E+01 3.185811485909E+00 -1.471701511428E+01 2.118373783555E+01 -7.204249726668E+00 5.766909738124E+00 1.295311816817E+01 -2.417159994305E+00 -1.295315990205E+01 2.229435732792E+03
 2.843971775855E+01 5.961353495486E+01 3.296761053579E+01 2.141441479161E+00 -8.286317308443E+01 3.684811183475E+01 -8.925877707128E+00 5.221271775174E+01 -5.480354007807E+01 3.760624480027E+01 -5.990731791358E+01 -3.267842284284E+01 -6.142792548978E+00 -2.366074309724E+01 -3.034751770384E+01 2.517279779617E+01 1.207922499614E+01 3.162728700153E+00 -1.405681997840E+01 3.880741204350E+01 6.115672953222E+01 1.997918520498E+01 4.345148288587E+01 3.295059601663E+01 -2.520677410010E+01 2.817951837249E+01 -6.531353774509E+01 -3.465131311321E+01 -7.184234573100E+00 6.860791715049E+01 6.517270735280E+01 -4.014258181975E+01 -2.460251848106E+01 -5.326914030669E+00 2.474856111719E+01 -3.546141643493E+01 1.213116335859E+01 -9.700217623855E+00 -2.165936723743E+01 4.073791211103E+00 2.171993121947E+01 1.910217088253E+01 2.208878465907E+03
 3.375120608531E+01 7.190991859945E+01 3.939805615301E+01 3.331639419455E+00 -9.994621602629E+01 4.482975165098E+01 -1.008816955796E+01 6.209341872026E+01 -6.536835775327E+01 4.484601688920E+01 -7.138419589268E+01 -3.920008881987E+01 -7.145532859643E+00 -2.852568426525E+01 -3.737244962269E+01 3.131256729981E+01 1.402762938820E+01 4.009106971004E+00 -1.637171871401E+01 4.661183996738E+01 7.349425556524E+01 2.464229313362E+01 5.199126932348E+01 4.036586521181E+01 -3.076762404545E+01 3.403243258849E+01 -7.759698724323E+01 -4.179046660467E+01 -8.484642019186E+00 8.300733169397E+01 7.769941391526E+01 -4.797902358670E+01 -2.907506376017E+01 -6.420352521186E+00 2.914329672679E+01 -4.254827076468E+01 1.420677342910E+01 -1.141212160282E+01 -2.610367862051E+01 4.753753506437E+00 2.588277887490E+01 2.290734068017E+01 -3.840234135138E+01 2.195043752580E+03
 -2.999924314566E+01 -6.375770453101E+01 -3.497815992691E+01 -2.850819308708E+00 8.861445470998E+01 -3.969702828344E+01 9.037944814747E+00 -5.516921366894E+01 5.805756723873E+01 -3.983059102100E+01 6.340195107086E+01 3.479064400711E+01 6.371027904268E+00 2.529020445709E+01 3.302500800669E+01 -2.762511098813E+01 -1.251252194177E+01 -3.518007152359E+00 1.459553104388E+01 -4.133934041516E+01 -6.519344460974E+01 -2.177391397771E+01 -4.615719614007E+01 -3.570238025120E+01 2.722445656855E+01 -3.016771241921E+01 6.895854529384E+01 3.705710575794E+01 7.546936352254E+00 -7.355468675003E+01 -6.900764270160E+01 4.259505316960E+01 2.586085669250E+01 5.691650079902E+00 -2.593899042024E+01 3.774548898678E+01 -1.265792611587E+01 1.015672320989E+01 2.314881379161E+01 -4.239210693418E+00 -2.299247644501E+01 -2.032667648731E+01 3.406630228865E+01 4.068440517607E+01 2.204717933946E+03
 2.911581599321E+00 6.422413765262E+00 3.451480051900E+00 4.373266447510E-01 -8.925516614445E+00 4.074146955248E+00 -7.739106021234E-01 5.382843109261E+00 -5.701104066807E+00 3.909859339381E+00 -6.216395586220E+00 -3.457508892335E+00 -5.892161078760E-01 -2.546581130423E+00 -3.483289997617E+00 2.977343737550E+00 1.151019678077E+00 3.989628749047E-01 -1.353020246097E+00 4.133125940146E+00 6.515611007131E+00 2.301995472509E+00 4.563550619912E+00 3.721931800857E+00 -2.818247809922E+00 3.047719811288E+00 -6.710781916161E+00 -3.728896274887E+00 -7.245677116466E-01 7.463759906957E+00 6.772492238879E+00 -4.204655001767E+00 -2.484551059427E+00 -5.731194719154E-01 2.469049805138E+00 -3.762803859430E+00 1.187572816736E+00 -9.659829703958E-01 -2.326244752160E+00 3.934642416344E-01 2.252239095635E+00 2.021272855484E+00 -3.402325054857E+00 -3.991679917613E+00 3.557665078812E+00 2.240512058582E+03
 -4.916657507462E+00 -7.576891263907E+00 -5.080721061624E+00 1.464076433803E+00 1.056938377078E+01 -3.784444075936E+00 2.707080289517E+00 -8.755105252206E+00 8.697343463664E+00 -5.999748413969E+00 9.743471278186E+00 4.621668539737E+00 1.400618256379E+00 3.073280229567E+00 2.124603989980E+00 -1.062000763172E+00 -2.790828089196E+00 -3.052952821087E-02 3.145702504665E+00 -5.523551642997E+00 -8.473540150381E+00 -1.281769093819E+00 -6.488933789000E+00 -2.771819243471E+00 2.410007430025E+00 -3.497516248359E+00 1.110002804450E+01 4.394940657635E+00 1.342855929942E+00 -8.211147820950E+00 -1.048178424148E+01 6.175253539815E+00 4.530164832301E+00 7.016555865655E-01 -4.776077204710E+00 5.121539039046E+00 -2.506658014793E+00 1.914812146576E+00 2.795857391668E+00 -8.708800869903E-01 -3.494414206631E+00 -2.755604122443E+00 4.469008136836E+00 6.065097943041E+00 -5.281919039981E+00 6.690885947593E-01 2.241819099212E+03
 -2.203087876704E+01 -4.808296768378E+01 -2.596963258266E+01 -2.937685974464E+00 6.680910109228E+01 -3.034779220268E+01 6.102774267235E+00 -4.063578817325E+01 4.299589887527E+01 -2.948162364280E+01 4.683497259723E+01 2.603106528401E+01 4.522436355499E+00 1.903802431434E+01 2.568531260163E+01 -2.179393754668E+01 -8.867351003635E+00 -2.809372340352E+00 1.039011272319E+01 -3.088819790500E+01 -4.883893570514E+01 -1.699141977938E+01 -3.437341918595E+01 -2.756463872861E+01 2.088454987572E+01 -2.278771878677E+01 5.072897629812E+01 2.795526682348E+01 5.495225754605E+00 -5.569200940235E+01 -5.103345603324E+01 3.162935453229E+01 1.886536713451E+01 4.279289209150E+00 -1.882472084466E+01 2.817365080361E+01 -9.112142259192E+00 7.348507713544E+00 1.743994708128E+01 -3.039733532567E+00 -1.700722110414E+01 -1.517837519195E+01 2.550130631535E+01 3.014877235304E+01 -2.681356698675E+01 2.579419587210E+00 -4.678930038985E+00 2.221279458043E+03
 1.364231480227E+01 2.896380014240E+01 1.590297174121E+01 1.279117382344E+00 -4.025862448936E+01 1.802302458587E+01 -4.120056263024E+00 2.509007691789E+01 -2.639266735209E+01 1.810841912717E+01 -2.883452803862E+01 -1.580345411816E+01 -2.900908965444E+00 -1.149380235347E+01 -1.499281823079E+01 1.253848512698E+01 5.695174162061E+00 1.606251773375E+00 -6.643534202039E+00 1.880353598554E+01 2.963086380504E+01 9.879899169421E+00 2.097501922219E+01 1.620846456852E+01 -1.236662903115E+01 1.370509682543E+01 -3.135823396947E+01 -1.683021255974E+01 -3.433520531892E+00 3.341930330031E+01 3.137973493417E+01 -1.936649632572E+01 -1.176197183901E+01 -2.587636313764E+00 1.179624342544E+01 -1.716513949732E+01 5.755530491041E+00 -4.621952348257E+00 -1.051487159037E+01 1.926309992919E+00 1.045144192579E+01 9.239363837361E+00 -1.548461247405E+01 -1.848951894859E+01 1.642150363907E+01 -1.614816404476E+00 2.388597671712E+00 1.219631641309E+01 2.233384848454E+03
 2.669947974800E+01 5.351140853115E+01 3.039985610885E+01 3.661357526335E-01 -7.441912755823E+01 3.226660308296E+01 -9.421043895397E+00 4.878213945013E+01 -5.075031139863E+01 3.485560078727E+01 -5.570680696704E+01 -2.974248640416E+01 -6.071349005751E+00 -2.130593608138E+01 -2.569962325770E+01 2.069649341602E+01 1.196686147870E+01 2.527008305330E+00 -1.383677505481E+01 3.539851156946E+01 5.553980632239E+01 1.680690561444E+01 3.986578725421E+01 2.831349160897E+01 -2.192711815242E+01 2.522221148564E+01 -6.114723583006E+01 -3.108841104697E+01 -6.836369385135E+00 6.114653050710E+01 6.049107640850E+01 -3.700695291463E+01 -2.334341537906E+01 -4.806946186051E+00 2.367212103721E+01 -3.240515863260E+01 1.174741335879E+01 -9.321555103728E+00 -1.947777591874E+01 3.968232749709E+00 2.015372686544E+01 1.744436971662E+01 -2.906895688274E+01 -3.552606121626E+01 3.143363476237E+01 -3.259716492178E+00 2.636637184429E+00 2.418394885272E+01 -1.427160343338E+01 2.215697869408E+03
 -1.627136953042E+01 -3.583955606352E+01 -1.925581295448E+01 -2.390910819898E+00 4.979453209622E+01 -2.272360279026E+01 4.367191984330E+00 -3.004623684989E+01 3.184775434964E+01 -2.183438155901E+01 3.466626795730E+01 1.934787542897E+01 3.299362825250E+00 1.418402848698E+01 1.934754162730E+01 -1.649405176552E+01 -6.464196280948E+00 -2.140663298500E+00 7.587794723815E+00 -2.296029437384E+01 -3.632433858560E+01 -1.281086731514E+01 -2.550839855544E+01 -2.071028137732E+01 1.566011330983E+01 -1.699501888211E+01 3.748946774705E+01 2.083768852347E+01 4.045968958837E+00 -4.157297800246E+01 -3.778801190020E+01 2.345391766812E+01 1.389978908541E+01 3.187454393084E+00 -1.384236139456E+01 2.093197112836E+01 -6.679338574836E+00 5.398809395842E+00 1.299411007698E+01 -2.224102681899E+00 -1.259158284901E+01 -1.127725066839E+01 1.896212705891E+01 2.233443647493E+01 -1.987528620079E+01 1.894120277958E+00 -3.666760460582E+00 -1.441774805587E+01 9.041702974223E+00 1.814904877258E+01 2.230243619655E+03
 2.775962854139E+01 5.817004478325E+01 3.217557560356E+01 2.078618889157E+00 -8.085734938289E+01 3.594991361290E+01 -8.719815250013E+00 5.096279905271E+01 -5.348769251502E+01 3.670369320365E+01 -5.847142359036E+01 -3.188977394153E+01 -5.998072098851E+00 -2.308867627136E+01 -2.960231363935E+01 2.455044436033E+01 1.179470969587E+01 3.084980187956E+00 -1.372523753540E+01 3.787334389592E+01 5.968113546443E+01 1.948750888049E+01 4.240526738410E+01 3.214393699625E+01 -2.459193107384E+01 2.749669353467E+01 -6.375036667046E+01 -3.381197977064E+01 -7.012990598133E+00 6.694438344389E+01 6.360975197920E+01 -3.917817104414E+01 -2.401585683602E+01 -5.198288335784E+00 2.415951382668E+01 -3.460781112798E+01 1.184322625042E+01 -9.469811561227E+00 -2.113509667160E+01 3.977132822932E+00 2.119862333086E+01 1.864215656055E+01 -3.119661619521E+01 -3.747976159537E+01 3.324737172012E+01 -3.321080363466E+00 4.351308771188E+00 2.489298117580E+01 -1.511216416076E+01 -2.835854803747E+01 1.851130492229E+01 2.210401937884E+03
 -8.248752731275E-01 -5.343002299975E-01 -6.844001056397E-01 7.416813447589E-01 7.585010287936E-01 6.306685708379E-02 7.693976211172E-01 -1.394146722351E+00 1.249366303083E+00 -8.708303901607E-01 1.466106000630E+00 5.000588621601E-01 3.264075187826E-01 2.396547132932E-01 -4.891865987247E-01 7.139308398331E-01 -6.587717933978E-01 1.378987982757E-01 7.215820582587E-01 -6.012779946823E-01 -8.525514313406E-01 3.719856577187E-01 -8.135630257695E-01 3.262318872820E-01 -1.240337876945E-01 -2.152025668746E-01 1.810051248097E+00 3.079604749133E-01 2.522089832336E-01 -3.889612436881E-01 -1.544435745021E+00 8.282764808116E-01 8.352354895879E-01 5.800624477956E-02 -9.372446568201E-01 5.831712081699E-01 -5.327024456809E-01 3.852533641142E-01 2.135202767362E-01 -1.921134674103E-01 -5.163578212468E-01 -3.143947149136E-01 4.627136494190E-01 8.643821112530E-01 -7.222712541034E-01 1.352740260699E-01 6.363569446647E-01 -8.577267056123E-01 3.239594810794E-01 -2.036487503592E-01 -7.206412805344E-01 4.473561302083E-01 2.241147274988E+03
 -1.948728222452E+00 -5.028343727448E+00 -2.472050796964E+00 -7.800192559293E-01 6.975699241714E+00 -3.419021567337E+00 2.097986381274E-01 -3.670515797193E+00 4.024244087501E+00 -2.750144338527E+00 4.315226519519E+00 2.595643627216E+00 3.039145933124E-01 1.971989268073E+00 3.156572514115E+00 -2.859529365004E+00 -5.854033467702E-01 -3.923742953617E-01 7.161397368769E-01 -3.065088513630E+00 -4.914796835575E+00 -2.119296197295E+00 -3.331950266510E+00 -3.267824658866E+00 2.398921890652E+00 -2.405781760452E+00 4.541532419489E+00 2.926622654165E+00 4.575449578800E-01 -5.960541845484E+00 -4.735650205276E+00 3.013783732093E+00 1.590408127657E+00 4.403817866008E-01 -1.524914968628E+00 2.776334597359E+00 -6.908822858916E-01 5.824145669796E-01 1.812351550482E+00 -2.222938019749E-01 -1.578773846823E+00 -1.497244059822E+00 2.555220491037E+00 2.830929389614E+00 -2.544838002276E+00 2.060826015511E-01 -9.083210194489E-01 -1.654394214218E+00 1.161370403526E+00 2.816835197296E+00 -1.164921860101E+00 2.496910654530E+00 -2.784903590658E-01 2.240831849601E+03