#BIOSYM hessian 1
@Type: Hessian Update
@Units
 distance: 	A
 energy: 	Kcal/Mol
#header
@natom 19

#label
L1      L2      L3      L4      L5      L6      L7      L8      L9      L10     L11     L12     L13     L14     L15     L16     L17     L18     L19

#element
Li Li Li Li Li Li Li Li Li Li Li Li Li Li Li Li Li Li Li

#matrix
57
 4.286602241090E+01
 3.253902940900E+01 8.224216343411E+01
 3.461221122202E+01 5.182791015589E+01 7.613931773892E+01
 3.684879037213E+00 4.144767247456E+00 1.977692840919E+00 3.163022840955E+01
 1.952870904154E+00 4.647958995588E+00 1.381969570673E+00 5.188146987401E+00 2.701225511604E+01
 -3.302310776530E+00 -7.662189858582E+00 -4.241998650967E+00 -3.300358039418E+00 -1.806178335738E+00 2.343506393776E+01
 -1.937891079904E+00 -1.144343206630E+00 -1.886918067005E+00 -4.571741667106E+00 2.211509372754E+00 1.596744542942E+00 2.556079154338E+01
 2.997027904825E+00 -8.744088609450E-01 -1.317672508343E+00 -1.154178440215E+00 -8.601442099590E-01 -2.726241586956E+00 -5.549548594520E+00 3.148228701319E+01
 -4.552609770220E-01 -1.617503708497E+00 1.832769010869E-01 5.113764478676E-01 -4.655046862337E-01 4.654311758261E-01 -1.726640101598E+00 -2.950590365014E+00 1.537413300290E+01
 -2.065361464885E+00 3.167670594140E+00 5.212276264485E+00 -1.699108101678E+00 2.190198629754E+00 -2.390784613368E+00 1.435851314801E+00 -4.891266661004E+00 -3.337435494075E-01 3.765303354600E+01
 1.637011524223E+00 -7.138732896350E-01 1.384496130512E+00 -1.053920012084E-01 2.278835822369E-01 1.079198037818E+00 -2.937078812301E+00 -8.956950710619E+00 5.192420821569E+00 6.620151084702E+00 2.768388758070E+01
 2.514802491142E+00 -2.899382377477E+00 -2.315511210888E+00 -8.999717165828E-01 1.235180121377E+00 -1.095697388078E+00 4.247753158066E+00 1.221845365198E+00 -2.832845908552E+00 1.836940795888E+00 -1.308975149497E+00 2.249858113828E+01
 4.853612026594E-02 -5.177998630533E-01 1.288090450744E+00 -1.451568309080E+00 -1.528817309815E+00 1.324246694789E+00 -6.396613389179E-02 -4.054556704926E-01 -9.763787613739E-01 2.099978483632E-01 4.725803844312E-01 -1.024107142104E-01 1.958540538956E+01
 5.316975843382E-01 -1.228650305583E+00 2.752026670307E+00 7.283739710208E-02 -9.406004069387E-01 3.730377689276E-01 -1.340884790058E+00 -8.245494861768E-01 4.684545332042E-01 5.919665166953E-01 1.069956015780E+00 -7.589816022538E-01 3.759944341413E+00 1.716249625856E+01
 1.109804170708E+00 3.582394459246E-01 -3.237276886644E+00 2.338452249215E+00 8.843685884115E-01 1.726650388561E-01 -3.323476571879E+00 2.278401316912E+00 -6.730376197182E-01 -8.835128758634E-01 9.126158179592E-02 -2.677740303170E+00 1.151223690097E+00 5.451185376109E+00 2.747511649547E+01
 -1.198200582022E+00 -2.127806220438E+00 2.919294343703E+00 4.599615616859E-01 -1.812707221175E-01 -4.990401511000E-02 -3.174083105334E-01 -8.045490176844E-01 1.527236761851E+00 -5.007385150942E-01 1.148432170230E+00 -1.052482987665E+00 -6.732230702949E+00 7.094339262746E-01 -3.551949371743E+00 3.041192451568E+01
 -4.336491950587E+00 -1.276477710102E-01 -8.381198671367E-01 5.625259284063E-01 -3.775337080416E+00 -2.183989388537E+00 -1.159765037173E-01 -4.795729609282E-01 -8.366592963043E-01 -6.329873198702E-02 2.260532946967E-01 -9.471543222536E-01 -9.465476031098E-01 -2.882083793046E-01 -3.999200013733E-01 -5.853710477246E+00 1.989011953924E+01
 3.651271199286E+00 -2.109797913729E-01 1.697760399142E+00 -3.070777746277E-01 -1.776589794482E+00 -1.628961061215E-01 2.943318184862E+00 6.764140006130E-01 1.086660304313E+00 5.714625346965E-01 8.647605036920E-01 1.479084873202E+00 -4.225138799949E+00 -7.029013993387E-01 -3.692286702493E+00 1.375142157892E+00 -1.166706073209E+00 2.141880962380E+01
 -9.148523634824E-01 -2.780707748094E-01 -1.940055644422E+00 -1.103169640604E+00 1.535277034855E-01 -3.091181509293E+00 -5.443023273884E+00 2.258814251208E-01 4.234206554166E+00 -2.758836774968E+00 -3.797759450514E-01 -3.210239362744E-01 -1.589226523929E+00 -3.962854387541E+00 -1.991292075805E+00 -1.773660113181E-02 2.546228776085E+00 -7.500645216465E-01 1.220458404808E+01
 -2.155571903476E+00 -1.012192482195E+00 1.243089338668E+00 -1.809399756783E+00 -2.005041736398E+00 -2.129309870117E-02 3.607889065330E+00 1.508197123288E+00 -8.175301568719E-01 2.490178266440E-01 -1.123959574777E+00 1.353567861624E+00 -2.358053740433E+00 -1.257666190996E+01 -3.729545924029E+00 2.036873921429E+00 -3.942432131758E+00 3.061802351696E+00 5.918471125107E+00 2.867709552270E+01
 -2.008945581469E-02 1.740621525327E+00 5.923990603945E-01 1.360526460489E+00 1.658796152321E+00 -8.119550174854E+00 9.101792741872E-01 9.507557286034E-01 -3.382250724290E+00 2.859211539578E+00 5.552632621310E-01 2.934528464044E-01 -1.529436891218E+00 -4.148011185166E+00 -3.086606341418E-01 -1.686373050437E+00 9.847494305317E-01 -1.796170842498E+00 -5.876456311113E+00 -9.050217452528E+00 2.446755979715E+01
 -1.821078186887E+00 -3.049112725910E-01 1.318550666791E+00 7.054771493414E-01 9.996053063185E-01 -9.960956915380E-01 -1.676150865214E+00 -1.847333443595E+00 -1.703771282815E+00 1.388367201519E+00 1.039702669090E+00 -1.167530159348E+00 -9.986638548217E+00 1.760754058116E+00 2.804813027750E+00 2.908160151000E-01 -8.641886552078E-01 1.087968307942E+00 4.473947333156E-01 4.526355554868E-01 -1.123691090489E+00 3.499284379399E+01
 1.729032075620E+00 -3.571187456632E+00 1.479237674032E-01 -2.540328282082E-01 -4.374344712010E-01 -3.714288510710E-01 -3.783192845721E+00 -5.520507005541E+00 -3.847184925655E+00 2.373605853640E+00 -9.276676796382E-01 1.670267918259E+00 -8.025804410625E-01 1.674851970402E-02 -1.609603219393E+00 -8.749122321618E-01 -1.607381012794E-01 -4.688698112182E-01 8.229947540362E-01 4.713590903913E-01 3.990659760556E-01 4.844437657609E+00 1.291364747530E+01
 -2.144916155594E+00 -9.572437808937E-01 -3.864233011801E+00 3.358348930713E-01 -2.979497862561E-02 8.636030178829E-01 -3.007901834018E-01 -4.185762470192E-01 -1.318324421069E+00 4.869707177412E-01 1.432996157752E-01 -6.172552191988E+00 7.304836965929E+00 -4.063399653226E-01 -3.414678042471E+00 3.068848090590E-01 -6.727486043983E-01 2.729309578630E-01 -7.998978646775E-01 -4.037788284711E-01 -8.246020103811E-01 6.480230328099E+00 2.539664355741E+00 1.821770762626E+01
 -8.456642934832E+00 -1.201937604924E+01 -1.275006922620E+01 -6.728020609482E+00 -7.808667843625E+00 1.057698162641E-01 -8.298066212679E+00 8.142378404677E+00 2.731365398835E+00 -4.191835299656E+00 6.159343082888E-01 4.564023354656E+00 4.669589560627E-01 -4.417854025054E-01 4.436623322379E-01 -1.414675988058E+01 4.665881200462E+00 1.523294438829E+00 -4.478426814064E+00 -6.087081247669E+00 7.269050838387E+00 -2.324627084919E+01 -3.865213620967E+00 -9.791965721756E+00 6.554085952408E+01
 -4.096800507848E+00 -1.814100772280E+01 -5.457428505134E+00 -2.034357757723E+00 -2.899406714875E+00 1.533980522826E+00 6.979476821560E+00 -1.449555266936E+01 -1.451774384618E+00 -4.397917803864E+00 -1.593269449483E+00 -1.832914910757E-02 -2.093950294570E-02 -4.859671294673E+00 -2.863471013700E+00 7.736295137288E+00 -3.839848795139E+00 -2.166174550376E+00 -5.657954254228E+00 -9.346913401326E+00 9.098223773240E+00 -4.240703648045E+00 -4.580074375131E+00 -1.543642221199E+00 -6.712326555780E+00 6.435513932781E+01
 -2.463237980152E+00 -3.792936341965E+00 -7.725502994085E+00 -6.436044848000E+00 -8.437126670786E+00 -1.534118663493E-01 2.591211427413E+00 -1.395299783182E+00 1.698852270953E-01 3.042101810736E-01 -1.199453369679E+00 -1.650003097658E+00 -1.162349305194E+00 -4.373397373554E+00 -1.566463032191E+01 3.314210586111E+00 2.492971224271E+00 -3.324308794987E+00 8.475218393114E+00 1.152103620099E+01 -9.641422729874E+00 -9.622686373889E+00 5.465371801717E-01 -3.383445448587E+00 1.327029290782E+01 -1.848530241116E+01 7.427326321873E+01
 -1.023361509369E+01 1.383940833361E+01 3.987111652022E+00 3.590324697398E-01 2.379220342168E+00 -2.783123316067E+00 -4.741202200988E-01 -1.016456283642E+00 -1.123292896537E+00 -6.981141522247E-02 -2.202814285651E+00 -3.106986543963E+00 -6.370146482359E+00 -4.396542126017E+00 -3.945206221569E+00 -2.125748311502E+00 3.980622197154E+00 -2.008083243080E+00 1.394555382771E+00 1.761502604872E+00 4.909070978069E+00 -1.974340845767E-01 6.571405179455E-01 -1.372985780650E+00 3.870345710784E-01 1.370587644384E+00 1.634048099388E+00 4.937447740643E+01
 -1.783362366987E+01 -3.090005800042E+01 -2.984665643069E+01 -2.336709236468E+00 -3.336504120386E-01 2.434559431603E+00 1.372378769866E+00 1.899002296699E-01 2.313779250302E-02 9.036719534886E-01 1.514439713683E+00 -3.632248824045E-01 9.087054400934E-01 1.005545855783E+00 2.223765285888E+00 -1.652294818057E+00 -7.985250567902E+00 3.378382632639E+00 -1.106056248011E+00 -1.962042944618E+00 -2.759448655593E-01 1.267480439157E+00 -4.207727841052E-01 4.254198950246E-01 4.718973822044E+00 8.934458521986E+00 -8.294840934291E+00 -1.636915344415E+01 8.679666778491E+01
 -2.901876028326E+01 -3.561010331315E+01 -4.750620181766E+01 -4.847933008702E+00 -1.763821142321E+00 3.843654675685E+00 1.091946678443E+00 2.722188418242E+00 -1.381086751656E+00 -9.899985132740E-01 -6.007174985889E-01 -1.049237145306E+00 1.219237452324E+00 1.075729183963E+00 7.749868524949E-01 -1.595669937510E+00 2.778311668049E+00 -2.021286496684E+00 -2.967962447167E-01 2.618240280016E-01 -3.419621123948E+00 -1.633874947803E+00 8.019370265454E-01 4.297094962960E-01 2.215552262887E+00 9.285215197621E+00 -7.634630160233E+00 -1.788050957188E+01 8.828618434817E+01 1.617753798629E+02
 3.960739373600E+00 1.661372885359E+01 9.483364984275E+00 -6.895789427579E+00 3.596234938657E+00 -3.305188476407E+00 5.956738659814E-02 -1.753900180976E+00 -3.215967950528E-01 2.821195809077E+00 -1.672837312969E-01 -1.345326723512E+00 4.317714209952E-01 -1.216187328167E+00 1.953453311845E+00 -1.432478432939E+00 9.154323481212E-02 -2.383228932943E+00 1.203960331024E+00 3.542861390415E+00 -2.463614708339E+00 -7.665321779441E-01 7.192503918621E-02 5.677412229666E-01 9.195003232782E-01 -3.236605023886E+00 1.102558618767E+00 -3.065823947445E+00 -3.996985116534E+00 1.864290879017E+01 7.930560161430E+01
 6.180517491980E+00 1.048426781866E+01 7.494186992858E+00 2.851875298648E+00 -5.337683328934E+00 1.143355759412E+00 3.031461553402E-01 -1.120477942718E+00 1.966958379981E+00 1.052504294863E+00 2.259607526402E+00 -4.736820729988E-02 2.246720683359E-01 6.730331038607E-01 -4.252016782438E-01 2.859544172782E+00 -4.027590264078E-01 1.879694236014E+00 2.352106489328E-01 1.295118193058E+00 -2.278685241315E+00 3.797579843039E-01 -8.079874382675E-01 -1.127669649464E-01 -4.593885430045E+00 -2.346883890494E+00 1.882476103540E+00 -7.139812769185E+00 -1.350719471460E+01 5.986869029327E+00 3.138729638808E+01 3.928899495007E+01
 -1.188493795465E+01 -1.462106227244E+01 -1.198046108628E+01 -1.228726114420E+00 7.288863845893E-01 5.094309638874E-01 -1.739808175382E+00 1.136251009806E-01 2.767245784156E-01 -9.594854078096E-01 -2.079173013823E+00 2.719507800852E+00 -7.667889070704E-01 -7.474529821413E-01 5.974554308150E-03 -4.224266450580E+00 1.491495430155E+00 -1.043586653811E+01 6.618888933034E-02 -2.241202572080E+00 2.793558924903E+00 -7.321738721042E-01 1.456180569925E+00 5.387551649405E-01 7.047443889170E+00 -1.428703540769E-01 -1.068003351860E-01 1.091185204325E+01 -1.883778476178E+01 -4.639732536456E+01 -4.628510237213E+01 -3.371132660939E+01 8.715628179835E+01
 4.096578928135E+00 2.949646049566E+00 1.950933389804E+00 2.720244778781E+00 -1.485810369947E+00 -1.206773594201E-01 -1.276276823153E+00 -8.652183345389E-01 7.937318835742E-01 -1.271701560613E+00 -2.329623466349E-01 -2.330863416373E-01 -4.223639460673E-01 1.314742242234E+00 1.125655221364E+00 1.999302529503E-01 1.902074471654E+00 -4.796240846198E-01 5.423710219577E-01 -1.401204427812E+00 -4.610840425382E-01 -3.905219569447E-01 -8.326689499474E-01 -7.027024885485E-01 -1.032013815234E+00 -5.354636092440E-01 -7.281675518044E-01 -4.133821865792E+00 -4.374541345941E+00 -4.445979264665E+00 -8.435036586966E+00 6.780004382395E-01 5.397748806924E+00 3.109392234101E+01
 3.680547920652E+00 3.570873060646E+00 5.840606598991E+00 1.701607603115E+00 -4.409019282035E-01 -1.507719263020E-01 -1.790627594499E-01 1.090148081135E-01 -1.195937637093E+00 2.140261418356E+00 1.391330676645E+00 1.717510798109E+00 5.406138297157E-01 2.057492760362E-01 -1.070636936527E+00 -1.682347459378E-01 -2.175464718292E+00 1.557617626227E+00 5.041214057727E-01 1.314070762712E+00 -5.722160337710E-01 2.971637116116E-01 -4.133648653436E-01 4.054729899679E-01 -2.594269756497E+00 9.776298317533E-01 -1.108167362555E+00 -8.495113134367E-01 2.736321128998E+00 5.895737695411E+00 7.200489320868E+00 2.622256201442E+00 -1.121867727297E+01 -8.204616536143E+00 3.150031909803E+01
 1.438288712930E+00 2.960497286455E+00 4.390116662946E+00 5.552722992945E-01 4.702794427060E-01 -5.640624670349E+00 -1.768037866057E+00 2.082224357629E-01 3.653290493654E-01 -5.889888680963E-01 2.958362436029E-01 -8.078008400095E-01 7.711628786243E-01 -1.613124466688E+00 -2.150054721681E+00 -1.850255830708E+00 1.112184434227E+00 -5.676010059054E-01 9.184480060707E-01 4.968082719294E-01 -4.685928498634E-01 6.405576068619E-01 1.739350706170E+00 1.913801911539E-01 -6.896957707300E-02 -4.507252871024E+00 2.134998115567E+00 3.565460070255E+00 -8.660438255533E+00 -1.143651369516E+01 1.078873591066E+00 1.130560672764E+00 -2.592607079750E+00 -4.072170803648E+00 4.066955294217E+00 3.749125472068E+01
 -5.708341453904E+00 -4.997848644933E+00 -7.624358077732E+00 -1.014297554530E+00 3.241520184647E-01 1.565068173072E-01 2.076811854063E+00 1.696732840703E+00 2.720178304234E-01 -6.103061004329E+00 -1.952702037756E-01 -1.783045185780E+00 -1.291505986057E+00 -3.045100403799E-01 -1.874919060414E+00 -1.749157730763E+00 9.473860488631E-01 -9.956240653324E-01 7.086734138468E-01 6.618949372288E-01 4.387971043743E-02 1.204173358281E+00 1.772544519005E+00 8.075499074133E-01 2.684743011670E+00 -1.402148979699E+00 -1.422996026639E+00 3.575324829367E+00 1.020853085712E-01 6.204702525814E-01 1.521176773970E+00 1.715200392706E-01 1.835562907778E+00 -8.788125270583E+00 -8.388839584429E+00 -3.237216663062E-01 4.122886573010E+01
 -4.023621692382E-02 -7.873058013792E+00 -2.398297720927E+00 -1.712928646254E-01 -1.762642764812E+00 2.248080933732E+00 -2.520831543103E+00 2.014216844592E-01 -8.998410836070E-01 1.197149102482E+00 -4.757730691580E-01 -2.241109258309E+00 -1.361981060408E+00 -4.046120378975E-01 -1.102928548048E-02 1.113395413705E+00 -2.450169631161E-01 1.318349298537E+00 2.334498860170E-01 -3.187863537512E-01 4.767096475869E-01 -1.568002007298E+00 -1.467500537813E-01 -3.012804775162E+00 1.689572565266E+00 3.269267626725E+00 9.680086021534E-01 1.800140483109E+00 -1.173076345461E+01 -1.926786677268E+01 6.251049829007E+00 8.350697514174E+00 -4.115072685182E+00 1.790396975643E+00 6.358876272387E-01 4.246111156420E+00 -9.517291214958E+00 4.931592029393E+01
 1.505629629662E+01 1.608165391456E+01 2.015816533037E+01 3.617253616136E+00 6.179475121426E-01 -8.687134342155E-01 -4.045577871922E+00 1.614092621306E-02 -4.911224680286E-01 9.923256340345E-01 1.953242413507E+00 -4.197794835564E+00 3.771511663986E-01 -1.525275030072E-01 -1.484010706738E-01 1.053954291340E+00 -5.181839134045E-01 -1.182979081382E+00 9.494307143443E-01 1.126778843550E+00 1.139250424077E+00 4.615565792285E-01 1.115281944433E+00 -2.271086986047E+00 -2.672422508399E+00 -6.085928332659E+00 6.194940355655E+00 8.371054427201E-03 1.582652661845E+00 3.076393220087E+00 -4.768576197019E+00 -2.230465667014E+00 -1.460204944528E+00 2.524104242106E+00 4.916503335929E+00 -4.735588128653E+00 -1.548989148738E+01 -6.133515281284E+00 7.189136244524E+01
 -7.812475123987E+00 -9.086627962846E+00 -6.856644161482E+00 -2.594534649730E-01 -2.558855866593E-01 1.762382033009E+00 5.243012062505E-01 -1.763449577176E+00 -1.776017712644E-01 -1.016016697094E+00 2.972672382079E+00 3.994043021603E-01 1.898837862723E+00 1.588696765623E+00 3.490407143433E-01 -2.209240056734E+00 3.194126127072E-01 -1.817153369965E+00 -1.239837342817E+00 -1.614222484282E+00 2.047661269871E-02 8.271507669129E-01 1.707865204951E+00 9.116310524746E-01 4.102398350834E+00 -9.529730508937E-01 1.519765196898E+00 -9.331447523140E+00 3.493720773861E-01 2.928933698066E+00 1.478274700944E+00 2.664124762313E-01 2.620624406922E+00 -5.913973575055E-01 -3.144952608765E+00 -3.799940936532E+00 1.930047758120E+00 -1.773603408832E+00 -4.340630029971E+00 3.529846695706E+01
 -2.453301045920E+00 -1.113812318195E+00 2.159962765862E+00 -2.351309967591E+00 4.675389763035E-01 -4.878832169825E-01 4.304844970107E-01 -2.131286355872E+00 3.440605571434E-01 4.522854927934E+00 -6.059541948554E+00 2.286279718205E+00 1.852686564299E-01 1.963226743027E-01 -1.017692316168E-01 -7.011779041890E-01 7.680734169602E-01 -9.792160971764E-01 -2.283628781955E-01 -9.652567584999E-01 -2.219404076699E-01 4.347383903725E-02 7.124285775271E-01 4.027637877433E-03 2.083872369180E+00 8.512436071509E-01 -2.004856891352E+00 -8.438035786879E-01 -3.705091611441E+00 -1.971563144397E+00 9.888405824348E-01 8.920341033829E-01 5.387584209864E+00 -2.380348489800E+00 -1.520166707555E+00 -1.602856157032E+00 1.010201638615E+00 -4.923748762176E+00 -2.479293074478E+00 1.314491850069E+01 3.203455874133E+01
 3.818726431544E-01 4.460703013317E+00 -6.264221482463E+00 6.474256163506E-01 8.693407393096E-01 -7.885672108808E-01 7.272932222819E-01 6.189376029403E-01 -3.057666772490E-01 -7.324271410692E-01 7.086675559820E-01 -1.837026722357E+00 -4.421700529162E-01 -8.801840620833E-01 -4.075751224568E-01 1.401298685079E+00 1.006672327216E+00 -1.469790293767E+00 7.468467918873E-01 -4.735725200083E-01 9.530024146394E-01 -3.599944732895E-01 -5.788330099755E-01 1.102883724037E+00 -8.795250650195E-01 -1.234303428445E+00 5.475304910567E+00 4.740675484291E+00 -5.044290943406E+00 -7.569904733147E+00 4.498532196640E+00 2.775350465891E+00 -3.791549207022E+00 -1.261864543062E+00 -1.270405024331E+00 1.433560908681E+00 3.365981035313E+00 -1.385449357435E+00 -3.545451083184E+00 2.420733483726E+00 -5.487631245042E+00 2.248606023297E+01
 7.313497503314E-01 -2.116572483306E+01 -1.298007784365E+01 -4.097233935498E-01 -3.503817180263E+00 3.250130848816E+00 1.749710179569E-01 1.083477986853E-01 -3.069137443924E-01 -2.133917737427E+00 9.607561403281E-01 2.926317545894E+00 4.228188578748E+00 2.385585718158E+00 1.871056770462E+00 -1.268172290682E+00 -3.171207993148E+00 2.041176029637E+00 -1.995176233453E+00 -1.214056279495E+00 -8.836299621635E-01 -2.283378776164E+00 7.888341330621E-01 5.742087619982E-01 4.240049265015E+00 4.847061428824E+00 -7.923116218051E+00 -2.023837715394E+01 1.680772317427E+01 7.448645228570E+00 -4.707904261933E+01 -2.604076489478E+01 3.874257476668E+01 1.011864733671E+01 -1.057892719813E+00 -3.387586870643E+00 -1.093838755195E+01 -2.586070587344E-01 6.181467408762E+00 -1.967276434709E+01 -7.073252917357E+00 -1.683644906397E+01 9.122663637577E+01
 1.963075836879E+01 1.567451202289E+01 2.451905718133E+01 2.655886456040E+00 -5.415413267498E-03 -4.569491194516E-01 -1.837553138709E+00 1.005554108646E+00 1.337670041344E+00 -2.004552289923E+00 -7.039381920799E-01 2.103842656641E+00 1.693832422303E+00 -5.213061464487E-01 8.203387449479E-02 9.964562293683E-01 6.078563758559E-01 -1.770764468363E+00 5.568027209662E-01 -1.070189284151E+00 1.121635065668E+00 -1.546596639061E+00 -5.400782058624E-01 -1.153481473495E+00 -7.345920972732E-01 -8.502029870790E+00 4.277105130617E+00 -2.530615002408E+00 -5.840422109348E+01 -1.041287140863E+02 -3.037153311737E+01 -2.023460364951E+01 5.492419243856E+01 6.693321620363E+00 -1.710211379412E+01 5.642163014850E+00 1.516496342918E+00 2.861244987811E+00 -1.560720686117E+00 -5.768191952590E+00 5.060634329796E-01 -4.765640656083E+00 2.198369758379E+01 1.151780619713E+02
 2.257717923555E+01 3.979846479579E+01 3.814268264545E+01 5.077441311605E+00 8.820221672320E-01 -4.742203212508E+00 1.122913254067E+00 -4.043974960289E+00 1.136819211158E+00 4.809179778022E-01 2.006884793507E+00 -8.606315139440E-01 -8.930640026836E-01 -4.592755255658E-02 -2.974345933938E+00 2.283873425929E-01 1.330314398652E+00 2.461589411894E+00 -1.662213989782E-01 -1.222167612860E+00 2.970403491202E+00 4.499489716639E-01 -1.193550468130E+00 -1.782624194129E-01 -4.874323809215E+00 -4.266430781764E+00 5.278498764218E+00 1.316161705743E+01 -5.247504825382E+01 -7.367456087820E+01 2.075721447866E+01 2.119427197411E+01 -2.228949323810E+01 1.887579223047E+00 3.635376713526E+00 7.889620406190E+00 1.405129979727E+00 1.387266819192E+01 -5.456086747278E-01 -7.602974210569E+00 -5.347328454592E+00 1.186054920337E+00 -2.956595949471E+01 3.177238497523E+01 8.801596916007E+01
 -5.523309610360E+00 1.141031110453E-02 -3.678837418999E+00 -1.537318300020E+00 2.114219599902E-01 -2.060052161434E-01 -1.365987901050E-01 -1.103493111478E+00 -1.358292088260E-02 5.608552635653E-01 -6.337112987900E-01 -2.271750782087E+00 -5.459429273767E-01 -2.012073055970E+00 7.217556477668E-01 -3.263108769658E-01 1.049259625520E+00 -1.255928475887E+00 8.043626946010E-01 3.775270120892E-01 3.357982428722E-01 9.461825267355E-01 -8.312594208524E-01 2.469373954284E-01 -1.360839850874E+00 3.165546316595E+00 -3.795532768935E-01 9.420237921783E+00 -1.700546814377E+00 -3.773598550304E-01 3.082677823466E+00 -6.199455673940E-01 4.417198312762E+00 -3.208936114589E+00 -4.161998508757E-01 4.992660711720E+00 -5.449516554716E+00 9.275382993452E-01 -4.489763470771E+00 1.125939721174E+00 1.397556191897E+00 3.842514399167E-01 -1.296435560706E+01 -9.172630681040E-01 -1.091012068722E+00 1.699342502194E+01
 -7.352393705355E+00 -2.580608125656E+00 -5.955930467988E+00 1.856690689935E+00 8.775874578485E-01 4.860292877253E-01 -6.369073330427E-01 2.167903723927E-01 4.468856725290E-01 -1.296533141635E+00 -6.154869203531E-01 -9.925608284540E-01 -1.919982105031E+00 6.790333789438E-01 -1.445132796361E+00 3.902997407155E-01 1.206177156489E+00 1.007498940601E-01 -2.107674570350E-01 3.740118360218E-01 -1.208977905559E+00 -1.939949238879E-01 9.824050368776E-01 3.043032099864E-01 2.679171099787E+00 -1.032441070831E+00 3.527489449876E+00 7.993993403395E+00 2.974277217392E+00 6.165210430020E+00 -1.800599198494E+00 -2.148608959828E+00 1.591864712100E+00 -2.368879106851E+00 -5.123966083297E+00 4.721496741679E+00 4.435597199884E+00 -1.798786241056E+00 -6.264123614414E+00 1.986492934322E+00 4.512722858285E-01 1.083247379599E+00 -4.027225700686E+00 -1.080343060425E+01 -3.109259097624E+00 -4.261242062847E-02 1.608521628061E+01
 2.617338457237E+00 2.332149748435E+00 8.393981852364E-01 -5.026542375822E-01 8.681207906456E-01 -2.152718789135E-01 -1.639988225546E+00 -3.286006972694E-01 -1.029957606362E+00 2.237487937121E+00 2.074960714405E-01 -4.831095085839E-01 -4.564022022085E-01 4.420491027845E-01 7.251850092637E-01 1.103418390973E+00 -1.316011482717E+00 7.659430800746E-01 -3.259333801915E-01 5.740691854630E-01 -2.742064792068E+00 -5.572248108969E-01 -1.532253900241E+00 -2.618389968217E-01 4.608408124777E-01 1.056250977865E+00 4.486571130441E-01 -5.318364507308E+00 2.481091076724E-01 -5.315356880558E-01 -2.099778508280E-01 -9.244125349311E-01 2.204277942040E-01 1.628172481032E+00 3.164929398593E+00 -9.892144650042E+00 -3.991805294185E+00 -3.418144560285E-01 -5.856853187105E+00 1.297120084486E+00 1.995976630507E-01 -5.383787564398E-01 3.284523797879E+00 3.420970372022E+00 -3.425872978406E+00 2.539688776941E+00 -5.797187932752E+00 2.759415074894E+01
 -2.872957337256E+00 -2.056272641816E+00 -1.635394802746E+00 -1.315176459205E+00 1.184483452041E+00 -1.195198138772E+00 1.773302155343E+00 2.104113843479E+00 -1.052105638466E+00 4.689199049311E-01 1.754408640975E-01 3.993809384269E+00 -2.056532895584E-01 -5.438822480315E-02 -2.347895486675E+00 4.534661053794E-01 6.092086414179E-02 1.618260172693E+00 -4.514980255285E-01 1.166938493289E-01 -4.030795368130E-01 -1.292243309559E+00 4.588289882727E-01 -7.160429584250E-01 1.949538201406E+00 -2.203022877456E+00 9.293818935461E-01 2.663823449064E+00 2.148027463347E+00 1.344195480910E+00 5.406729804840E-01 -1.015274876962E+00 -2.884184333489E-02 -1.114121155956E+01 8.027790693536E+00 5.857819182992E+00 3.422384983371E-01 -2.022364768109E+00 -3.078144267042E+00 2.041097039393E-01 1.006878489703E+00 2.318674547300E-01 -1.658589595023E+00 -1.492239087911E+00 8.761758150510E-01 -2.724305546820E+00 2.307572582470E+00 -1.514116699999E+00 1.487740914098E+01
 4.449042228966E+00 5.942723406078E+00 5.065777456287E+00 1.284335210840E-01 -5.002562106531E-01 -3.081117506518E+00 1.525628324305E-01 -4.585197197984E-01 -4.884232102933E-01 -1.374172893245E+00 -1.259377417369E+00 -9.880331571933E-02 1.190197385596E+00 2.471062496898E-01 8.313935387163E-01 -1.218067085823E+00 3.056083750255E-01 1.379873423771E-01 3.339785380775E-01 -5.967164826044E-01 1.808485717309E+00 7.736632517228E-01 -4.349182850849E-01 1.237117537635E+00 -2.168043938242E+00 1.676959882411E+00 -3.776546747719E+00 7.634068187036E-01 -2.739713339025E+00 -3.368073069432E+00 -2.648428450379E-01 1.935879350436E-01 -2.527037404781E+00 6.840262366758E+00 -3.520621005477E+00 -4.856390273624E+00 -1.963991877254E+00 -9.847468923767E+00 -1.338723656399E+00 -2.407956891149E+00 -2.544654610483E+00 5.723747654823E-02 -5.314570115630E-01 2.626138327308E+00 -1.635090325591E-01 1.674001723046E+00 -6.929789531764E+00 4.157406181553E+00 -9.074169385091E+00 2.481309010733E+01
 3.854840752903E+00 7.782165950936E+00 6.261432261180E+00 3.133810984599E+00 2.214482318679E+00 -4.007815808105E-01 -2.272081731526E+00 -5.979922415896E-01 6.243387153756E-01 -6.937295801997E-01 -8.022552148239E-02 -8.551575441521E-02 7.689893101722E-01 1.109324366332E+00 7.382308686098E-01 -2.851283982961E-01 5.816641532807E-01 1.727382757318E-01 1.512651054644E-01 -1.446704424141E+00 3.619408030057E-01 -8.233082201136E-01 1.214897926275E+00 -4.090018287835E-01 6.133772208408E-01 -3.681547305250E+00 -1.464010673543E+00 1.397331247065E+00 -3.660955826573E+00 -2.153341352701E+00 -4.139610756511E-01 1.159391879232E+00 -4.902061161688E+00 7.070783890870E+00 -4.840605879313E+00 -4.626952726714E+00 -1.214508592579E+00 -4.773410326834E+00 1.188339009823E+00 -3.811018300836E+00 -5.336419494062E-01 8.929730361583E-01 1.303386121104E+00 2.600735010092E+00 3.202298027447E+00 -3.098348454487E+00 2.428616804231E-01 1.200419536927E+00 -3.458641828452E+00 1.034760420849E+01 2.168328572230E+01
 -2.601858326457E+00 -4.998362658499E+00 -2.689730495610E+00 -1.058147898660E+01 -2.839937254952E+00 1.046246405044E+01 -6.995684402986E+00 -1.042685762513E+00 -9.250530149782E-01 -6.607459026442E+00 -3.444916620491E+00 -5.101081707247E+00 2.518975550391E+00 3.685617465406E-01 1.103639942544E+00 -7.890733086225E-01 -4.579892727682E-01 -9.364953394337E-01 5.854796726798E-01 -9.234688385729E-01 -1.153675683717E+00 -7.285828146699E-01 -1.463183806687E+00 1.052526645825E+00 6.435205948180E-01 5.089136226221E+00 1.544594149643E+00 1.242201158427E+00 -8.603615287093E-01 -2.227965971921E-01 -5.614720866679E-01 7.027744300890E-01 8.426170755102E-01 -9.035557291681E+00 3.964366035449E-01 -3.815106929475E+00 -1.118307635917E+00 6.206973138357E+00 -4.025512357678E+00 -8.301324561385E-02 -6.277772244417E-02 -6.138252687927E-01 3.303382857491E-01 7.279262041963E-01 -3.227744084191E+00 1.222203694010E+00 3.687919302345E-01 1.785623812714E+00 -2.200941193859E+00 -1.203560861797E+00 -4.550463580675E+00 3.220810253340E+01
 4.621923464821E+00 6.774633686070E+00 5.536476406872E+00 -1.540564588584E+00 1.078222024150E+00 1.981614664021E-01 -8.465492893452E-01 -2.444582606229E+00 3.846960530977E+00 -4.145322305161E+00 -7.791318000943E+00 -5.296544518712E+00 9.356527373371E-01 2.016046454327E-02 1.516153332018E+00 -7.278470724087E-01 -4.169577372076E-01 -2.054471640279E+00 -2.665876535521E-01 6.002213886483E-01 -1.544718987067E+00 5.746048478506E-01 1.405308652906E+00 8.210651984514E-01 -1.065350142085E+00 -2.725382571216E+00 1.506290998415E+00 -1.070500916249E+00 9.019901729528E+00 1.502608887463E+01 -6.173655425013E+00 -7.493195743138E+00 7.109623173953E+00 2.055248530109E+00 -2.783624895955E+00 -1.050834231246E+00 -5.717788115856E-01 -2.728529772540E+01 2.601374346243E+01 -1.710207898248E-01 2.926067638174E+00 -3.032023011996E+00 9.405124101483E+00 -3.972758509329E+00 -1.237696211610E+01 6.074998220845E-01 2.118063631214E-02 -1.034612949283E+00 -1.567656821560E+00 3.140882973907E-01 -1.345762300716E-01 -1.997419880794E+00 4.652604508552E+01
 -2.789837652602E+00 -7.620283975603E+00 -5.489511960016E+00 5.207358160256E+00 -1.018365994568E+00 -4.877991785468E+00 -5.574444812330E-01 2.019878972463E+00 -5.545389860422E+00 -1.633455626684E+00 -5.484521982474E+00 -1.710282824281E+00 -1.063547468364E+00 1.234301953909E+00 8.423768707151E-01 1.045445993859E+00 -1.696746695842E+00 2.324147282267E+00 -1.370239232410E-01 -1.011186410806E+00 6.273233025869E-01 7.316267126953E-01 -2.846593781855E+00 -1.276903336405E-01 -2.452532827909E+00 7.878841402082E+00 -7.304863788939E+00 -3.111669908572E+00 -2.934334578228E+00 -5.627550578429E+00 1.177934581776E+01 4.912924933575E+00 -8.021621219860E+00 -5.004860390293E+00 4.522484596645E+00 7.138930603729E-01 -3.774198599303E+00 2.362848690504E+01 -1.960713211455E+01 3.799226194307E+00 5.454932854420E-01 -2.150847910664E+00 -1.008345587988E+01 -8.578734700591E-01 8.000323985676E+00 1.309584491980E+00 1.814598574392E+00 -1.162799384772E+00 -7.131716674659E-01 -1.281132583627E+00 -1.536842153073E+01 6.834561611668E+00 -2.260830573811E+01 5.488632875959E+01