#BIOSYM hessian 1
@Type: Hessian Update
@Units
 distance: 	A
 energy: 	Kcal/Mol
#header
@natom 4

#label
L1      L2      L3      L4

#element
Li Li Li Li

#matrix
12
 2.187135428128E+03
 -1.115204265053E+02 2.021451816140E+03
 -3.458708829048E+01 -7.375971384207E+01 2.218789045047E+03
 1.235750274003E+02 2.491718078181E+02 8.077482595225E+01 1.961044722539E+03
 -1.026887648464E+02 -2.013449884945E+02 -6.794199413030E+01 2.290152161971E+02 2.056036219234E+03
 -1.033130742918E+02 -2.046290542905E+02 -6.794370800705E+01 2.316427883597E+02 -1.879848883742E+02 2.050119711300E+03
 5.867279053504E+00 1.278531932640E+01 3.641074419740E+00 -1.385881495674E+01 1.183367011968E+01 1.178889700153E+01 2.240230880345E+03
 2.198357090271E+02 4.356202320083E+02 1.448066517721E+02 -4.930801553236E+02 4.000386368614E+02 4.060349700606E+02 -2.507486372829E+01 1.376674832547E+03
 1.178466588619E+02 2.326384030829E+02 7.764530028729E+01 -2.637597495175E+02 2.136593137115E+02 2.169266146371E+02 -1.348549848387E+01 -4.618115505918E+02 1.994172728479E+03
 -7.573161386128E+01 -1.504367006392E+02 -4.982881208155E+01 1.700851857379E+02 -1.381601214705E+02 -1.401186110695E+02 8.606776279501E+00 2.983193100248E+02 1.593985891395E+02 2.137885772565E+03
 -5.626517675423E+00 -1.488093893284E+01 -3.104943799720E+00 1.489313130834E+01 -1.388374687955E+01 -1.342102739591E+01 4.558742822051E-01 2.851241930370E+01 1.551383379738E+01 -9.722487915148E+00 2.241098387230E+03
 2.005350372111E+01 4.575036504919E+01 1.235548339368E+01 -4.865786479485E+01 4.226756879258E+01 4.174350279113E+01 -1.944472937615E+00 -8.903007124062E+01 -4.789852268261E+01 3.054883401139E+01 1.012137398851E+00 2.234645657218E+03

