#BIOSYM hessian 1
@Type: Hessian Update
@Units
 distance: 	A
 energy: 	Kcal/Mol
#header
@natom 19

#label
L1      L2      L3      L4      L5      L6      L7      L8      L9      L10     L11     L12     L13     L14     L15     L16     L17     L18     L19

#element
Li Li Li Li Li Li Li Li Li Li Li Li Li Li Li Li Li Li Li

#matrix
57
 3.104322308555E+01
 2.539831062825E+00 8.031755559040E+00
 -5.383730932463E+00 3.501076090150E+00 1.291994518471E+01
 -2.080312511451E-01 -4.397193192903E-01 7.081524297194E-02 1.118141296316E+00
 -2.294676350562E+00 -1.078691819967E-01 4.398404053848E-01 3.403537737952E-01 2.499513814011E+00
 1.048025959586E+00 -1.695414725889E-01 -1.789007167427E+00 -1.784148269964E-01 3.784514421641E-01 1.325539193730E+00
 1.361119577360E-02 -2.342030577148E+00 2.976687057579E+00 -1.855541088774E-01 8.222802782228E-01 -1.077327746997E+00 1.476891918350E+01
 -2.810916338005E+00 -1.454665253809E+00 -5.826477640000E-02 -2.693237907444E-01 1.033253559126E+00 -1.732588371280E-01 -1.645265327111E+00 1.655678683261E+01
 4.277764743754E-01 -4.849795980274E-01 3.363845006553E-01 1.412741875103E-01 1.058621982112E+00 -1.328447920733E-01 1.386949460784E-01 -1.279916302441E+00 8.098201197928E+00
 -3.392567053540E+00 1.956225366930E-01 1.226162106386E+00 -1.057366956212E+00 -1.127372277844E+00 -6.766571623727E-02 -1.196439663172E+00 -2.919925353262E+00 -2.315436059139E-01 2.084142382746E+01
 -1.390914131774E+00 -2.711816896519E+00 -1.870292981574E+00 -2.305232246561E-01 -2.614127256677E+00 -4.699136177228E-01 -1.540203140761E+00 -1.597354229224E+00 -1.307805148675E+00 7.774440181814E+00 1.208051675538E+01
 1.505068255637E+00 -3.284140140379E+00 -3.958042424337E+00 -3.135658546317E-01 -1.905766110219E+00 -1.835511844803E-01 -3.127744371944E+00 -8.552925588205E-01 -1.261323707590E+00 5.079920848453E+00 6.539363641280E+00 1.226238142992E+01
 1.364138176297E+00 -8.306801730027E-01 -1.109433628697E+00 -1.921974564875E+00 5.801840922947E-01 -5.867888300254E-01 2.205450888364E+00 -7.196501670290E-02 1.379466488464E+00 -2.236659427502E+00 -2.188212511045E+00 -4.317978454276E+00 2.772979962041E+01
 -4.353979641037E-01 -1.300879954343E+00 -2.070494243858E+00 -6.664914684383E-01 7.830475814146E-01 4.630297571875E-01 -5.675194452253E-01 1.248256150103E-01 8.081622417098E-01 -2.959752753882E+00 -7.254967463722E-01 1.083446377628E+00 5.613267520365E+00 1.545934509754E+01
 2.092095231317E+00 -3.929145151739E-01 -1.351116551611E+00 -2.647517207652E-01 2.595985349246E-01 -1.553407797523E-01 2.586249593573E+00 7.124704553326E-02 1.008375176447E+00 8.889439375977E-01 -4.689019694338E-01 -1.677394157879E+00 1.258836524826E+00 9.043631811043E-02 1.259234283888E+01
 -4.149651445696E+00 2.138597566436E+00 -1.099441053398E+00 -8.045147204609E-01 -5.642779292797E-01 1.113604120707E+00 -1.385349276764E+01 -3.565218469411E+00 -8.472412069294E-01 2.647996539738E+00 2.295326389952E+00 4.696239564400E+00 2.052752566192E+00 3.222254685583E+00 -1.187036269336E+00 2.513282115639E+01
 -1.354630192162E+00 3.309289257738E-01 1.376023973818E+00 3.244247978343E-01 -5.501249045988E-01 -4.918005153121E-01 -6.824394821138E+00 3.341123279222E+00 -1.326049175693E+00 2.416237132856E+00 4.282552794789E-01 1.005011784571E+00 -7.259107949201E-01 -2.436512888175E+00 6.467782568356E-01 1.252180028927E+00 1.219870237742E+01
 -4.354446412151E-01 7.477944345728E-01 1.064206253730E-01 1.255400714042E+00 -2.844145968381E-01 -5.577137742666E-01 -2.970824612042E+00 -7.424798590886E-01 2.472773254823E-01 8.243714078446E-01 6.595183267488E-01 5.820495167271E-01 1.194252199059E+00 6.047442593671E+00 -3.250793114137E+00 5.057154398921E+00 -1.825896231679E+00 1.675337245929E+01
 1.180915934052E+00 -1.270892421653E+00 7.959801452226E-01 -2.643444270891E-01 5.756449320753E-03 -9.426734539798E-02 2.270482408643E+00 6.005711458720E+00 -2.006114299321E+00 1.574723797761E+00 2.136799937828E-02 -7.770473258714E-02 -1.252208866638E+00 2.610112041261E+00 -2.537981504835E+00 -7.472758172325E+00 2.127114526477E+00 -3.093453158431E-01 1.460946849985E+01
 2.727177666594E-01 1.169637733172E+00 3.403166499824E-01 9.186511142282E-01 -5.226185594810E-01 3.290826185118E-01 5.224265061504E+00 -2.271694281258E+01 -1.030503590377E+00 2.295007971121E+00 6.523619830438E-01 1.523891858990E-01 -9.271568438815E-01 4.065798910049E-01 5.118701943013E-01 2.665720518370E+00 -4.550860637200E+00 1.243185628259E-01 -6.864823208583E+00 3.728776405009E+01
 -1.918967769423E+00 1.796687305623E-01 1.295362450597E-01 1.225097473999E-01 4.163491720038E-01 -6.679438648251E-01 -4.475485335678E-02 -1.341454455339E+00 3.028916184699E+00 -1.123979004944E-01 -9.915793877415E-01 -2.042698788841E-01 -9.393926789254E-01 8.307951458189E-03 3.754621896805E-01 -1.475208713802E+00 9.047927884424E-01 -6.799156446646E-01 -3.206921902583E+00 -2.763722046148E-02 8.908372962279E+00
 1.019774342090E+00 4.701854614288E-01 -1.714369774295E+00 -6.680111979218E-01 -7.117106626994E-01 3.221894707162E-01 -2.578063655495E+00 3.593778122021E-01 -5.849992503896E-01 -1.980435798060E+00 -2.026065413240E+00 -1.962227061713E+00 -2.422806552441E-01 5.956508663256E-01 -2.817058026020E+00 2.641193155090E+00 2.956918664977E-01 -8.100250704644E-01 -8.310769905332E-01 7.128141221469E-01 -2.842719573503E-01 1.493711633374E+01
 -1.143162005949E+00 -8.163502822188E-01 9.681877921997E-01 -4.498730232926E-01 2.435116710999E-01 -6.821383235017E-01 7.071414519757E+00 -7.046299850994E-01 -1.205582225945E+00 -5.970474445766E-01 6.721431045029E-01 7.868208675649E-01 3.868050870538E-01 -9.293014904264E-01 4.685544282233E-01 -3.801433420830E+00 -6.850424806622E+00 -3.562030595275E+00 7.821706826573E-01 1.816474208892E+00 -8.949427633196E-01 3.394109540907E+00 1.255884656131E+01
 4.861288930645E-01 -9.140230970928E-02 -1.544710647055E-01 -6.659664342498E-01 4.545906039039E-02 4.685672948944E-02 -8.185701850194E-01 2.143232746581E+00 4.151380612711E-01 -8.929220749268E-01 2.805008076068E-01 2.536327200215E-01 -1.996070188418E+00 -1.043058345031E+00 -5.172827612491E+00 5.996475967582E-01 -1.030488160398E+00 -2.900840447713E+00 9.939767296318E-01 -2.627079388399E+00 5.061712681621E-01 7.974338349687E+00 2.384859932484E+00 1.212742330999E+01
 -1.468765002124E+00 -9.037059955958E-01 5.255102065109E-01 -6.966666264734E-01 7.546658110550E-01 -2.149637036362E-01 1.906604626452E+00 -2.844090692885E+00 5.703041274921E+00 -1.092443178927E+00 -8.317392894045E-01 1.818010173648E-01 2.042448060641E-01 8.490522340500E-01 1.063410527140E-01 -1.587561813936E+00 -6.130349707838E-01 -4.182433832252E+00 -1.499070444977E+00 2.676788612910E+00 3.262271194504E+00 -9.087432488981E-01 -1.595317525634E+00 8.782481828175E-01 9.035476571482E+00
 6.457708119372E-01 -5.703138343676E-01 -5.708453006636E-01 3.032244963998E-01 7.685541122343E-02 2.678312453185E-02 -2.077278875666E+00 -2.970150631111E-01 6.205732286180E+00 -1.991903840107E-01 -2.444073816832E-02 -8.679272666874E-02 -9.928368513576E-02 -5.024212742110E-01 -3.420265067067E-02 1.479164557334E+00 -4.069048528517E-02 2.135061357173E-01 9.348687389073E-01 -2.114347013501E+00 -2.879024674047E+00 -8.246736874753E-01 -1.052509952890E+00 -5.650410660831E-01 4.901840102931E+00 1.285439125417E+01
 9.866234541703E-01 1.066757931840E-01 -6.442739993373E-01 -7.998103393508E-01 -1.420676726009E+00 1.431513778824E-01 2.621504138237E+00 4.024655046197E+00 -8.022774771418E+00 -1.792485088191E+00 -6.128142011893E-01 1.303643060558E+00 -4.847505891603E-01 -2.562582073998E+00 5.839660218702E-01 -3.365291147872E+00 1.677591447779E+00 -6.352285607344E+00 2.956266692574E+00 -1.872736850457E+00 -6.697290625011E+00 2.439478636754E+00 7.325221271875E-01 -5.301558729983E-02 -1.963901292488E+00 -4.299791819915E+00 2.290006777811E+01
 -3.508510197360E+00 1.989828297383E+00 -5.198766411500E-01 1.177864212435E+00 -1.525152596238E+00 2.563118455066E-01 -2.728750568177E+00 -1.127878981499E+00 -2.160531364594E+00 -2.486448460629E-01 2.813661000242E+00 2.756087240172E-01 -1.424242940038E+01 -5.293900353600E+00 -3.064039402782E+00 -5.868519942968E-01 3.762072878675E-01 5.822348133725E-01 -3.502868458368E-02 3.092225367658E+00 4.810706432148E-01 2.157635342114E+00 -4.993070959103E-01 2.986282221885E+00 -1.755119449955E+00 -2.875658473836E-01 -5.509248481743E-01 1.327430241424E+01
 -6.976652691871E-01 1.720797164957E+00 2.326934704823E+00 -9.567562454331E-01 -5.448766780533E-02 -1.168763662894E+00 -2.751060367978E+00 -1.136641843180E+00 3.246815454036E-01 3.650509798175E+00 3.657654321792E+00 3.305251857389E+00 -2.025366339992E+00 3.272402311877E+00 -1.363241404855E+00 4.017667858364E+00 1.658881892047E+00 -1.249450570578E+00 1.494039839282E+00 -1.923340741477E+00 1.921640683465E+00 2.510326803569E-01 1.502431159650E+00 -2.711440829693E-01 2.996979760108E+00 8.068236993456E-01 -8.725573233885E-01 -2.062168349061E+00 1.496791964129E+01
 -1.854920877317E+00 1.151246501421E+00 3.365516353854E-01 -3.547181393505E-01 -2.608142149809E+00 -8.924716061253E-01 -1.668061403507E-01 -1.827365776759E+00 -2.422113536839E+00 9.460350039672E-01 2.800297474152E+00 1.758244364307E+00 -1.777259229753E+00 -7.034004103821E-01 2.424059726343E+00 2.174295114144E+00 2.500900799472E-01 1.358479360474E+00 -8.048485362373E-01 1.417609456731E+00 2.040620602640E-02 -4.447131353725E-01 2.184603036927E+00 1.386495553178E-01 -3.025104942150E+00 2.056116238775E-01 -3.101955522311E-01 3.490306054265E+00 -1.708230262318E+00 1.712474879590E+01
 8.025732091984E-01 -1.141405645228E+00 2.004740583099E+00 6.894783878298E-01 9.079331223912E-01 9.229346006828E-02 1.480335627078E-01 2.711128482940E+00 1.364318673328E+00 -7.005940114238E+00 1.474425565853E+00 -1.613624910486E+00 -1.701601183665E+00 -1.692864233119E-01 5.680513295391E-02 -1.098105523712E+00 -8.841880557414E-02 -7.022260238691E-01 -2.835669329244E-01 -3.821665784645E+00 -6.006135952231E-01 -5.873796289462E+00 -3.937694788814E+00 1.653659599859E+00 1.897931262046E+00 6.715339443889E-01 -2.413425597012E+00 1.212558928224E+00 -2.310651901963E+00 -2.641467782262E+00 1.607897345271E+01
 3.342479917413E-02 -8.693512958213E-01 -1.321659463262E+00 2.079220508853E-01 1.854442134220E+00 1.190071388539E+00 -1.002993786771E+00 -2.293384866820E-01 1.227325067493E+00 6.336703905288E-01 -1.382706386031E+00 1.744483483614E-01 6.109090874847E-01 6.754903390401E-01 -2.608597306161E-01 1.471733755388E+00 7.430341753751E-02 5.052846439770E-02 -7.046592655783E-01 2.573582727471E-01 -2.618310155312E-01 -4.109375504277E+00 -3.651027942404E+00 -1.222714591951E+00 1.078974977706E+00 3.528176056033E-01 -1.274582307547E+00 -2.209601066794E+00 -1.012029003666E+00 -2.096491568294E+00 1.339209917045E+00 5.228993064416E+00
 -3.260037569989E-01 -2.655752189269E-02 1.774144534975E+00 -2.106750808486E-02 -1.346500841156E+00 -9.253759208674E-01 1.925726603975E+00 1.193124450246E+00 -4.026786294430E-01 -1.856447154706E-01 1.720748939963E+00 -4.722745727035E-01 1.171130373017E+00 -1.416803521343E+00 6.302709987485E-01 -2.845522100944E+00 3.800321956325E-01 -1.739909475010E-01 1.190133393342E+00 -1.324276779815E+00 -4.343273913694E-01 -1.665601668253E+00 3.367833667697E-01 7.475880699509E-01 -1.960194932985E-01 7.358589090730E-01 -1.202961872779E-01 1.293188050124E+00 -3.427771149541E+00 7.013067149541E-01 5.771510449443E+00 -3.148304653390E+00 8.123929136061E+00
 -6.127862897770E-01 -8.999392504712E-02 -6.547750048800E-01 -4.261527349903E-01 -2.551506210203E-02 6.493317613287E-01 2.541569941006E+00 2.257240633830E+00 5.846271808348E-01 -3.977159460513E-01 -2.434634369218E-01 6.060527177353E-01 -4.010971310406E+00 5.367217830489E+00 6.489713517853E-01 -3.204717580143E+00 -1.740263729381E+00 3.094667324876E+00 -1.793809726499E+00 -1.525148251501E+00 2.451372682727E-01 1.191037852279E+00 7.095742434981E-02 1.099844913902E-01 4.311415632625E-01 -2.308353455298E-01 -2.432405939704E+00 1.780498817711E+00 -3.202458791148E+00 -6.621150875612E-01 -1.600592271773E+00 -2.489040637190E-02 7.074284359372E-01 2.079034137946E+01
 1.217738263650E+00 1.979028426489E-01 2.152484854432E-02 5.809676577478E-01 5.913111463480E-01 -3.369762279680E-01 1.347003938006E+00 1.894556800026E+00 1.596948406710E+00 5.637188108823E-01 -9.896087145176E-01 1.129017200340E+00 4.860466308346E+00 -2.078046206392E+00 -1.091256132071E+00 -2.488326619845E+00 -8.143658455762E-01 -5.339977484675E-01 -7.400559077003E-02 -1.286368430316E+00 4.057903876293E-01 -4.113835845041E-01 9.001619976908E-01 2.525609050400E+00 -2.454245473028E-01 -9.867766762583E-01 2.167267796835E+00 -2.026615412226E+00 -5.223060510321E+00 -3.769075018677E+00 -1.099563873450E+00 9.699539577323E-01 6.146275884775E-01 -4.458682151445E-02 1.195436070337E+01
 1.113353916665E+00 -2.166902892171E-01 3.087957498929E-02 -1.178727120629E+00 -1.159477527778E-02 1.134143829582E+00 -6.896485227130E-01 -1.570746345817E+00 -2.041834969235E+00 8.757132686823E-01 6.561406982138E-01 -1.435391901322E+00 2.043934071326E+00 -1.117724543216E+00 -3.396759572954E-01 2.789796328601E+00 5.103800201108E-01 -3.920047075451E+00 -2.862054175218E-02 1.434606344815E+00 -1.203173934430E+00 4.930622238481E-01 7.053986394661E-01 6.364303426551E-01 -3.432628935340E-01 -1.961922081604E-02 -1.034732829761E+00 -7.489300769556E-01 1.353262730798E+00 1.475882998149E+00 5.628460169444E-01 5.629055724923E-01 -1.186720983269E-01 -7.191596808483E-01 -4.953438896071E+00 7.146420666692E+00
 1.556871979568E-01 1.108418067626E+00 -7.962571297592E-01 -1.529734361560E-01 8.700120593085E-01 9.901265343285E-01 -1.596148048505E-01 9.310986079472E-01 -4.297594052784E-01 3.973416002248E-01 -6.552042877469E-01 -2.137979496211E-02 -5.215795567175E+00 -1.517185578671E+00 2.726580857224E+00 -2.472535839465E-01 -5.825591661620E-01 4.763966924143E-01 -4.913269476724E-01 -6.915109903985E-01 9.527762789512E-01 6.095496757866E-02 1.787124199293E-02 2.518650390930E-01 4.713065071357E-01 8.886466982250E-03 8.294001092711E-01 3.599831270355E+00 -1.760296686683E-01 -6.946631512346E-01 1.931633222461E-02 -1.796532580860E-01 -5.111741117706E-01 -1.831036867405E+00 -8.746448880907E-02 -1.432297950134E-02 1.351317156148E+01
 6.821461966496E-01 -4.981206649691E-01 1.346431261436E-01 1.705959228832E-01 -5.417397895118E-01 3.787786018480E-01 8.203640002247E-01 -1.344259098490E+00 8.718359720524E-02 1.072520332073E+00 1.266286032799E+00 -6.172091760002E-01 -2.504063400785E+00 -1.050585428849E+00 2.477794401602E+00 3.312348345530E-01 -4.537263393579E-01 -4.305800056144E-01 -3.941520009477E-01 4.545622920242E-01 9.461192007337E-01 6.542383559323E-02 4.723100787662E-01 -8.403359018744E-01 -1.121673243338E-01 -5.389311259891E-01 1.682126769922E+00 4.522655161514E-01 -1.294749367120E+00 6.893093958682E+00 -5.352995027959E-01 8.257493389060E-02 -5.246480099351E-01 2.517602094776E-02 -1.506735160946E+00 3.676913596284E-01 -2.608169766529E+00 9.940014295575E+00
 -1.079148348670E+00 -3.600190148968E-01 2.175884685229E-01 1.012557671516E+00 2.924660107583E+00 6.010244441270E-01 -2.916213860135E+00 3.489616010875E+00 1.082682871659E+00 -1.816806407626E+00 -1.808575238005E+00 -2.188797068918E+00 6.275633161336E-01 8.638033135706E-01 -5.320729428576E+00 1.831220729555E-01 6.116928364148E-01 3.166816734425E-01 1.378127346459E+00 -4.099711782780E+00 3.317421990960E-01 1.245151208205E+00 -8.720183988438E-01 -2.970353676650E+00 1.454396338252E+00 -2.312739906821E-01 -1.464564490145E+00 -2.094639013722E+00 6.345920670335E+00 -2.156302149113E+01 1.992508052973E+00 1.158217309954E-01 -7.038129244068E-01 1.265203295442E-01 1.033453372349E+00 -9.633854920205E-01 -9.976091711495E-01 -9.219603986343E+00 3.485999028771E+01
 -4.823417517425E+00 -4.548798994315E+00 -4.463922760738E-01 1.522215327420E+00 5.117781174583E-02 -5.607096037612E-01 -1.725161240410E+00 1.703258371510E+00 2.982673804513E+00 -8.979599591298E-01 6.210878028603E-03 5.236787220447E-01 -3.727048762154E-01 -1.717911813351E+00 2.342964128445E+00 -3.719666456817E-01 2.181292844158E+00 4.945724237833E-02 -3.141965581402E+00 -3.084909095647E+00 2.898734127735E+00 2.335982666346E-01 -1.438156537143E+00 -2.409901197976E+00 2.085950686965E-01 3.723967739873E-01 -1.289404400875E+00 -7.063877315583E-01 -2.055495607171E+00 -8.555345013280E-01 -5.672898239757E-01 1.423527136570E-05 -1.579680713637E+00 -6.943532410543E+00 1.958241932077E+00 -3.880596471109E+00 1.124959566291E+00 1.622129793688E-01 1.044915235828E+00 1.398544749647E+01
 -5.107712926821E+00 -5.850449069354E+00 -2.304980828472E-01 3.540832094637E-01 -9.590038714237E-03 -7.206484795762E-01 1.886365396642E+00 2.803659219136E+00 1.769200910286E+00 -1.394376620578E-01 7.734887273564E-01 5.062859730417E-01 7.563665720856E-01 -1.077888958412E+00 9.647261203089E-01 -1.971569776575E+00 2.654673796903E-01 6.204823323203E-01 -2.991008941221E+00 -5.170395607026E+00 2.341772343490E+00 7.416293116396E-01 4.272049673439E-01 -1.314509492639E-01 9.653036531857E-01 4.372153841477E-01 -1.968056255059E+00 -1.687582163148E+00 -1.324191490243E+00 2.427214084437E-01 4.640695007769E-01 -4.942387992533E-01 5.401946713992E-01 1.793965395480E-01 -1.559271623974E+00 -3.413496296485E-01 -2.009396548284E-01 4.825148242101E-01 -4.500576156482E-01 6.975807015881E+00 9.145962728879E+00
 4.833014261948E-01 -3.781506773347E-01 -1.442620861002E+00 -9.457097598143E-01 -1.593496861430E-01 1.060895594988E+00 1.941941507247E+00 -1.614758023816E+00 2.474725788760E+00 3.489222556160E+00 3.123513987124E+00 2.149656104506E+00 6.435996650459E-01 3.398058690557E+00 5.168074260814E-03 -2.996211366722E+00 -3.821357947864E+00 3.206127260610E-02 9.786296950735E-01 8.584426161239E-01 -1.215762481457E+00 -1.369991926448E+00 1.374588885963E+00 -2.212133443077E+00 1.299007989981E+00 -1.190224550676E-02 -5.581502513943E-01 -1.742071211125E+00 -1.138640342258E-01 -1.500416803866E+00 1.011705929507E+00 4.171484180071E-01 -2.800439820414E-01 -2.103826831710E+00 -4.391554130222E-01 -1.600143718398E+00 -4.828877614554E-01 4.473404072071E-01 9.714648007129E-01 3.157119395307E+00 -2.296355659342E-01 1.573735676151E+01
 -1.095225961025E+01 1.918773075589E+00 7.102081304669E+00 1.756779749078E-01 1.336941041076E+00 -2.641172052022E-01 1.973783793091E-01 1.654270545637E+00 -1.734069887856E-01 -3.202184967706E+00 -4.221612452278E+00 -4.459114035633E+00 6.266674007407E-01 -8.407967271506E-01 -3.291017187517E+00 -1.903144752982E-01 1.323097596103E+00 -1.350765689268E+00 -1.337803954234E+00 -1.212765397134E+00 9.296786341604E-01 4.190019836694E-03 -3.963673788136E-01 4.270761402553E-01 4.129084518823E-01 -1.706942418618E+00 1.253985193129E+00 4.232680143344E-01 -1.838706505164E+00 -6.684373465497E-01 1.422427102963E+00 2.854097708490E-01 6.964453794231E-01 8.166625122075E-01 1.162508927599E+00 -2.654192895298E-01 -1.496787090950E+00 -2.823615539090E-01 1.528124508795E+00 1.618151731904E+00 9.346309732599E-01 -2.953916524518E-01 1.058317298979E+01
 8.312700833126E+00 2.796861780294E+00 -2.611664958958E+00 3.197986721990E-01 -6.345053389028E-01 1.126925845331E+00 -2.344161087254E+00 -3.015410831917E-01 6.148656669599E-02 -7.833930238240E+00 -5.005763026829E+00 -5.554918298241E+00 2.414918666797E+00 -2.098402131089E+00 1.292938324496E+00 1.626473643234E-01 -4.551610955052E-01 -9.523760253256E-01 -3.019803885628E+00 -4.722828635195E-01 4.285526761022E-03 3.144573330528E+00 -1.388972701242E+00 9.338763962982E-02 -2.068761651031E+00 -6.357841727018E-02 -3.978358666420E-01 1.198265405855E+00 -4.902388098401E+00 3.517502062012E-01 4.131978617103E-01 -5.145647770776E-01 -3.247779957456E-01 -4.962169938966E-01 7.171166184795E-02 1.328670452503E+00 3.301259714550E-01 1.198182036219E-01 -4.927486322957E-01 1.786596587075E-01 -1.573144858015E+00 -2.563396591347E+00 -9.074510469778E-02 9.935963006198E+00
 9.651892356123E+00 -1.099039604486E+00 -1.833920994248E+00 -2.665750393063E-01 9.468792261683E-01 8.448647176198E-01 2.283405868192E+00 3.967896443503E-01 1.033780831763E+00 -8.143709505954E+00 -8.049347162591E+00 -4.174619459901E+00 5.488352536454E+00 2.205508193521E+00 4.658650392441E-01 -3.708576648607E+00 -7.516332704689E-01 -2.863765188563E+00 6.544499972703E-01 -2.122120429769E-01 2.364345863809E-01 3.246735992469E+00 -5.718883030226E-02 1.970580800819E-01 1.264242929640E+00 3.326229146676E-01 7.281352078901E-01 -5.203752491941E+00 -2.614082291725E+00 -3.834692093374E+00 -1.026644855346E+00 7.557625826905E-01 -1.528390715008E+00 9.619107266587E-01 -4.197756132898E-01 2.096869912838E+00 -1.597400674722E+00 -1.006252512760E+00 2.980851266998E+00 -3.052438602440E-01 6.144156427046E-01 -2.386831423126E+00 -5.074743896394E-01 6.072093519996E+00 1.173340066541E+01
 6.660436864685E-01 3.311950219172E-01 -8.418965162581E-01 8.361661373428E-01 -2.375145757038E-02 1.700573227993E-01 -1.499366019966E+00 -7.493373014075E-02 -1.094261577410E+00 -1.989498067446E+00 -9.208660121578E-01 -5.722682767924E-01 -6.794834888623E-01 -6.738962666337E-01 4.075634346523E-01 -5.531528113127E-01 2.104219530432E+00 -4.386970135687E-01 2.212302576262E-01 1.380890915375E+00 -5.069542563529E-01 6.565270073708E-02 -8.053103048570E-01 -7.039439331014E-01 -1.631932173562E+00 -1.867387927258E-01 8.476374835238E-01 1.407739103150E+00 -1.910176781009E+00 6.221904770612E-01 -1.384458315927E-01 -3.133251074915E-02 1.288446604995E-01 -7.672370401389E-02 1.080583847937E+00 -4.843694826966E-01 -3.736227338499E-01 6.391628519849E-02 -4.162070521532E-01 6.379174223133E-01 -1.128260509673E+00 -1.840278749487E+00 4.223914476173E-01 1.829125582535E+00 6.257808557328E-01 2.160601410546E+00
 1.005267163794E+00 -3.528022794447E-01 -6.973774679974E-01 4.665721971289E-01 -3.541285505198E-01 -2.848805117159E-01 2.230201985119E-01 -2.620998245743E-01 -8.545303076786E-01 7.875520663436E-01 1.629485162758E+00 1.438494205737E+00 -1.462131590123E+00 -8.193338352980E-01 -6.189931240020E-01 -1.151824552105E+00 1.911847002633E-01 1.333364367686E-01 6.258636917297E-01 7.041668003546E-01 -9.329188841393E-02 -1.208152303055E+00 -1.647269775074E-01 4.030370604601E-01 -6.337915564389E-01 -6.523862846695E-01 7.962216892947E-01 1.238046162446E+00 2.053090245501E-01 -1.588235398716E-01 3.756473644813E-01 1.337570040195E-01 2.417406216980E-01 -3.500195122247E-01 1.297151383549E+00 -8.251610284746E-01 2.158675852752E-01 -6.335413998028E-01 -1.212012474051E-03 -2.257331704929E-01 -5.980266787604E-01 -1.111094228860E+00 -1.123855201915E+00 -7.178152545024E-01 -1.160471119066E+00 3.554245843891E-01 1.217150319914E+00
 -1.183347141653E+00 -8.342192308237E-01 7.917475032192E-01 1.171088963097E+00 -9.189108400305E-02 -7.315716189483E-01 -1.415669510289E+00 7.287495760859E-01 -3.135796138501E+00 -2.030396964640E+00 -1.282701231869E+00 -1.634043551876E+00 2.088114888415E-01 -2.504710129152E+00 5.187783642826E-02 2.243108012732E+00 3.699174954918E+00 1.342005015233E-01 2.136561058289E+00 1.977633221727E+00 -1.230884334086E+00 4.491015231324E-01 -1.585775633095E+00 1.362863503887E+00 -2.092643113447E+00 2.765846340145E-01 2.224465363141E+00 1.871697047957E+00 -1.483629404850E+00 1.032180215404E+00 -6.380552718637E-01 -1.065691739336E-01 6.640612005942E-01 1.772892069692E-01 1.899911217443E+00 8.882311486777E-01 -2.494377470957E-01 -1.572112258738E-01 -1.051772809311E+00 -2.464656456664E+00 -1.193825527651E+00 -1.280555840006E+01 -2.781560023319E-01 1.360897777085E+00 1.034919601886E+00 2.484975992844E+00 1.464003246571E+00 1.296304242309E+01
 -9.786435038942E-02 6.016336068473E-01 -3.380126165806E-01 -3.359384975727E-01 -1.864702901484E-01 -6.122276399253E-01 -2.857864681641E-01 -2.174884285045E-01 -3.008507461404E-01 2.540811399329E+00 2.247571080011E+00 1.580276915864E+00 -5.271846329890E-01 -1.488770390545E+00 -2.005990020949E-01 1.604922585373E+00 -8.977423367330E-01 -1.121847504449E+00 -1.083171493146E+00 -1.687479491067E+00 5.106863991594E-01 -1.025457261429E+00 9.840518806128E-01 -1.569294368236E+00 7.999694903371E-01 -2.523229855139E-01 2.001458638860E+00 -1.090630288243E+00 6.775957382180E+00 -5.018347105081E-02 -5.296438334617E+00 1.417593728926E+00 -5.833007015397E+00 -8.700067657615E-01 -5.156809997819E-01 1.550653762602E-02 -1.037288423235E+00 4.223117989962E-01 1.506035147316E+00 -3.295489461378E-01 -3.558685210410E-01 -1.885041980653E+00 -1.862838671692E+00 -1.431813183885E+00 -1.518395704421E+00 -1.081970882607E+00 7.218996348756E-01 8.870538716507E-01 9.374610596199E+00
 9.903879508876E-01 1.106753606470E+00 -1.459885624213E-01 -3.028461928246E-01 -3.008064924593E+00 4.574120256328E-01 1.169231251692E+00 1.216132322485E+00 -5.627444664134E-01 -2.293187109128E+00 -2.917041971107E+00 -3.980847850390E+00 -3.966902966031E+00 -7.210478797899E+00 -2.719179674536E+00 -3.903365259879E+00 -2.149305178447E+00 1.117969852164E+00 1.110344290774E+00 -1.151061556152E+00 -3.022251136034E-01 5.984882229842E-01 -3.458239789453E+00 9.090504479118E-03 -1.223714236759E+00 -2.510103623322E-01 -9.617312790543E-02 7.534827817381E+00 -1.090160191453E+01 -5.358706113383E-01 2.147935272389E+00 -2.387598421106E+00 5.529752550587E+00 1.704899201573E+00 -2.253746521296E-01 -3.297728609803E-02 1.642709167919E-01 -1.759696923235E+00 2.596632006190E-01 3.897178434611E-01 1.058381915218E+00 1.005530960944E+00 2.014910185348E+00 5.992509633922E+00 2.157072877775E+00 -3.208744105849E-01 -5.732570338863E-01 -5.997338682804E-01 -4.941047983613E+00 2.574360181559E+01
 -1.744103594619E+00 5.911094612592E-01 -8.541150888121E-01 -6.960523460139E-02 3.007975013142E-02 3.475013615379E-01 -7.454903526520E-01 -1.806259412839E+00 -2.027071790203E-01 7.148725257838E-02 -2.794614497609E-01 -2.850145412091E-01 -2.376146927104E-01 -9.347221239536E-01 -1.736466061160E+00 3.346316982600E-01 -3.881197457610E-01 9.472693525310E-01 -1.265708302819E+00 2.511048093863E+00 -1.457412165613E+00 1.507458083344E-01 -3.293975625416E-01 -1.067264676624E+00 -1.196589140626E+00 8.389438009905E-01 -1.520443773466E+00 1.503426910640E+00 7.802739497492E-01 3.152150822338E+00 -6.071430545903E+00 2.610872261853E+00 -7.043729429696E+00 7.862183122138E-02 -1.377806594327E+00 1.115893474864E+00 1.110891524510E+00 -2.507161700794E+00 -4.663051171370E+00 1.282346097742E+00 -1.456123444702E-01 5.151539517152E-01 2.517664522326E-01 1.277433196183E+00 -7.178248671099E-02 2.313951254466E-01 1.054265508921E-01 -5.654163053605E-01 5.874741116597E+00 -5.475737926862E-01 1.301592183782E+01
 -6.061518762440E+00 -4.278201129803E-01 -3.704870214919E+00 1.493050558035E-01 4.050097134894E-01 -7.397542899052E-01 -1.142106807365E+00 -1.255143256094E+00 -9.044933436904E-01 9.143970534940E-01 2.294449681361E-01 -1.275315646773E+00 9.965420357442E-02 -7.266350399949E-01 1.409964237019E+00 1.874056854423E+00 6.150918280732E-01 -5.514112164122E-01 -6.387127433201E-01 1.568193975663E+00 -4.398483391148E-01 1.739936705455E-01 -4.822149093147E-01 -8.816006459182E-01 -6.924659321218E-01 9.059520744872E-02 -1.454899664953E-02 1.846546591625E-01 2.362690316906E+00 4.304036002277E+00 4.100105514240E-01 1.949373496592E-01 -3.788944768773E-01 -5.412316278578E+00 -6.373995107376E+00 8.374008450097E-01 -7.180858230609E+00 2.874137231224E+00 -2.836556103213E+00 4.110541215090E-01 1.260976283730E+00 1.093172377130E+00 -1.050254559713E+00 -9.756903847969E-01 -2.204993080922E+00 -1.447209651798E-01 -5.068101415119E-01 -1.111747337862E+00 1.239409092830E+00 -1.034263252558E+00 -6.230243999560E-04 1.786686795500E+01
 -6.412473668498E-01 -1.135689673292E+00 -1.911124924609E-02 -7.721431878717E-02 4.185848289029E-01 -5.723149766439E-01 1.764855591192E+00 -1.912462295899E-01 -7.651945686351E-01 1.166661611891E+00 8.041182809890E-01 4.988780206957E-01 -3.978929042053E-01 -1.201577183256E+00 1.331234629744E-01 -1.583086097540E+00 -1.949331652680E-02 8.148316493098E-01 -8.908314294341E-02 -1.099997133672E-01 4.344141244387E-03 -1.919609804627E+00 -3.203069331794E-01 -5.506736786515E-01 9.922212398588E-01 1.813186394470E-01 7.583765300780E-01 -4.952080328568E-01 2.491901588621E+00 -1.242143316762E+00 2.412245465912E+00 -1.121863865952E-01 1.294356747077E+00 -3.622805834865E+00 -2.872944526895E+00 9.377803597857E-01 3.560419301408E+00 -2.155900095419E+00 1.665270583303E+00 5.434947431241E-02 2.065337744670E+00 -3.550460390356E-01 -1.543360936185E+00 -2.238334919875E+00 -9.676654724485E-01 -1.210628906270E+00 3.627754707034E-01 -4.233143594631E-01 -9.363474085027E-02 -1.124206350933E+00 -1.034744776491E+00 1.942413285928E+00 5.598846391244E+00
 -3.911284266721E+00 9.214081889784E-01 -3.988186088311E+00 9.114702636595E-01 1.478271483493E+00 4.202448504066E-01 -4.862968880313E-01 4.305509731472E-01 1.362971787293E-01 4.474800695379E-01 -3.369232782050E-01 -1.594967733603E+00 -3.147909489774E+00 -1.561039121865E+00 1.771797588689E-01 -1.380448398617E+00 -1.587925059771E+00 1.243599988139E-01 -2.835054905548E-01 5.617701074343E-02 6.959823351074E-02 -9.368864992545E-01 -1.454495341947E-01 5.144809917907E-01 -1.186278852592E+00 -5.853012482996E-01 -2.314068351418E-01 2.986996779837E+00 -1.423628403842E+00 6.613805012985E-01 5.599980961358E-01 1.827163118359E+00 -1.250993590903E+00 -1.095685664887E+00 4.216772947661E-01 -1.926080156443E+00 -2.133014520655E+00 1.889703983511E+00 -5.125086645298E-01 -2.131114305831E-01 -1.302515618702E+00 1.292224467275E+00 -1.220994498183E-01 2.127498998312E-01 -2.948281283361E+00 7.832792195442E-01 5.625086061098E-01 -7.415330293448E-01 9.179946652285E-01 -6.247404893186E-01 6.177558984039E-01 8.383652673625E+00 -3.113608743293E-01 8.775338256713E+00