#BIOSYM hessian 1
@Type: Hessian Update
@Units
 distance: 	A
 energy: 	Kcal/Mol
#header
@natom 4

#label
L1      L2      L3      L4

#element
Li Li Li Li

#matrix
12
 2.063216014741E+03
 -1.168655102278E+01 2.240093189219E+03
 -1.790544762267E+01 -1.089866442663E+00 2.239513614687E+03
 1.161422610246E+01 8.450551261933E-01 1.623251277439E+00 2.240531434106E+03
 2.506559105715E+02 1.616952247371E+01 2.357463239787E+01 -1.798870959970E+01 1.893241481987E+03
 1.567101912657E+02 1.000335914931E+01 1.411168205282E+01 -1.186156478117E+01 -2.151062691409E+02 2.108569431551E+03
 3.843629642452E+02 2.514638529325E+01 3.798973462558E+01 -2.582720820492E+01 -5.396290460222E+02 -3.364418745045E+02 1.410379020518E+03
 -2.363948852081E+02 -1.534419935879E+01 -2.273580929909E+01 1.650345527839E+01 3.296611661789E+02 2.046344390739E+02 5.097511072813E+02 1.928763140871E+03
 -1.301806246434E+02 -8.507426087707E+00 -1.276873210813E+01 8.869387673293E+00 1.824690537352E+02 1.135980660416E+02 2.811838276350E+02 -1.724220183717E+02 2.145731457197E+03
 -2.183470843686E+02 -1.430488939665E+01 -2.170753827972E+01 1.452766871852E+01 3.069618450492E+02 1.915932480184E+02 4.719313441639E+02 -2.898596773510E+02 -1.598725906650E+02 1.972734192206E+03
 -2.574474341023E+00 -7.239161331399E-02 2.510433441994E-01 6.401991955040E-01 1.773950080161E+00 4.684709169758E-01 4.731553448265E+00 -2.233986969690E+00 -1.539609275890E+00 -2.797278302143E+00 2.241378549224E+03
 -8.624119000121E+00 -4.060666189317E-01 -1.044391088966E-02 1.368925830835E+00 9.062583007333E+00 4.566941074761E+00 1.726831224450E+01 -9.476611402883E+00 -5.714670409421E+00 -1.001311907413E+01 8.200950150091E-01 2.242004293967E+03

