#BIOSYM hessian 1
@Type: Hessian Update
@Units
 distance: 	A
 energy: 	Kcal/Mol
#header
@natom 19

#label
L1      L2      L3      L4      L5      L6      L7      L8      L9      L10     L11     L12     L13     L14     L15     L16     L17     L18     L19

#element
Li Li Li Li Li Li Li Li Li Li Li Li Li Li Li Li Li Li Li

#matrix
57
 2.166381091382E+03
 -7.323038151795E+01 2.137386131100E+03
 -4.256421096330E+01 -7.574043375190E+01 2.170598753558E+03
 3.133783877927E+01 2.430585721584E+01 2.508085147210E+01 2.204981081070E+03
 -2.257137258480E+01 -9.119222915449E+00 -2.049244190487E+01 4.488564597079E+01 2.178658476422E+03
 1.442321073680E+01 3.109215491131E+01 1.831825580890E+01 9.705998105071E+00 -2.136938988807E+01 2.221973986824E+03
 3.027955181325E+01 1.453732395692E+01 1.216005406331E+01 -3.284532621509E+01 4.147852561290E+01 1.207448069196E+01 2.207689440795E+03
 -4.425112405758E+01 -1.140169625804E+01 -1.924011448209E+01 6.827670777661E+01 -9.246880608143E+01 -3.331709492055E+01 6.771676738161E+01 2.095281958568E+03
 6.987465811281E+01 3.764630439943E+01 3.445125691069E+01 -7.809462308138E+01 9.854467069328E+01 2.733300307543E+01 -7.704329520004E+01 1.581222210813E+02 2.061448238800E+03
 1.735043488726E+01 1.976103804782E+01 7.101148788415E+00 1.857693123298E+00 -9.085785682831E+00 -9.804711673166E+00 1.093301286861E+00 -9.851638090990E+00 3.488211150617E+00 2.233131058842E+03
 -4.856220784209E+01 -3.385525278890E+01 -2.666003091310E+01 4.425776669534E+01 -5.240916026574E+01 -9.996718766644E+00 4.310748969840E+01 -8.504744774777E+01 1.004771855509E+02 1.612813295378E+00 2.182712498949E+03
 -2.620918854833E+01 -1.984371889982E+00 -1.473556365758E+01 5.418720702539E+01 -7.629551028373E+01 -2.964508418146E+01 5.255505321399E+01 -1.168059668948E+02 1.236173906265E+02 -1.138489137429E+01 -6.498757608702E+01 2.145207843643E+03
 1.526165294774E+01 7.620710253064E+00 8.745527700038E+00 -2.007399472406E+01 2.603816110682E+01 7.858917664270E+00 -1.941270977830E+01 4.078928290382E+01 -4.519827704374E+01 2.025760033479E+00 2.487038209942E+01 3.251966851027E+01 2.229433443027E+03
 -1.227906387106E+01 -2.253247540415E+00 -1.073414868394E+01 2.879606579826E+01 -4.074031739697E+01 -1.525865072841E+01 2.691206314707E+01 -6.070424946329E+01 6.370013475903E+01 -6.715999562661E+00 -3.339442315104E+01 -5.034307221785E+01 1.686888166514E+01 2.214057483439E+03
 2.317166085336E+01 1.338750623984E+01 7.286461725654E+00 -1.794706534664E+01 2.052862167203E+01 4.164930631858E+00 -1.893943955338E+01 3.598048547013E+01 -4.346339211614E+01 -2.070457756634E+00 2.540310466319E+01 2.647036525794E+01 -1.054850647119E+01 1.311371579739E+01 2.229014889766E+03
 3.690404954005E+01 2.633955873909E+01 1.305543579980E+01 -2.163117251293E+01 2.143984561971E+01 4.565206274102E-01 -2.302668675080E+01 4.012186451832E+01 -5.236885975135E+01 -6.073499870197E+00 3.232081367657E+01 2.769669717367E+01 -1.209526614944E+01 1.324249551599E+01 -1.563850507738E+01 2.218759652241E+03
 -4.149002365800E+01 -3.020344940665E+01 -1.981200756426E+01 3.099237564376E+01 -3.425154457456E+01 -4.114163145868E+00 3.100634312618E+01 -5.820054799761E+01 7.169022751701E+01 4.149124097647E+00 -4.273516812627E+01 -4.285228892689E+01 1.729242153725E+01 -2.154324158210E+01 1.940121779572E+01 2.597715793502E+01 2.208220029413E+03
 -1.780791612102E+01 -2.181529342160E+01 -7.222895770486E+00 -4.773767948312E+00 1.388573372781E+01 1.234486654380E+01 -3.886564847491E+00 1.681790739918E+01 -1.020703103701E+01 9.088624548180E+00 1.529503357140E+00 1.742838741937E+01 -3.918731170704E+00 9.992594440170E+00 9.320838288055E-01 5.309410208044E+00 -2.397872012178E+00 2.229973563699E+03
 -8.084512493593E+01 -1.147536640817E+02 -7.343762887029E+01 1.054052777522E+01 1.488996127308E+01 4.388168548007E+01 2.932812476065E+00 2.051201845724E+01 9.055782304236E+00 2.840999596508E+01 -2.129815940633E+01 2.719762144946E+01 -8.210940754649E-01 1.402453775602E+01 9.859703005346E+00 2.592441878466E+01 -2.461234906765E+01 -3.278309662991E+01 2.101374316170E+03
 -3.303307152843E+01 -8.304465923834E+00 1.799276021757E+01 2.744278833313E+00 4.957019433307E+00 2.879755439496E+00 1.228660715746E+01 -1.140508042868E+01 2.241121785474E+01 1.204404365570E+01 -1.602821538403E+01 -7.345937618860E-01 2.900219498881E+00 3.591956006019E+00 1.278303168256E+01 2.081223876250E+01 -1.777744975578E+01 -1.310616765104E+01 -2.110183183169E+01 2.195817718105E+03
 2.486757395092E+02 2.765036526514E+02 1.830463597936E+02 -1.080172702927E+02 7.686145518887E+01 -5.992774494155E+01 -9.353468934703E+01 1.346388515886E+02 -2.205851804931E+02 -5.649830103040E+01 1.572047411556E+02 8.081287216655E+01 -4.838990925219E+01 4.063498169793E+01 -7.079213137317E+01 -1.147898919225E+02 1.327458547971E+02 5.828253437079E+01 2.983387385801E+02 7.727055206866E+01 1.375086849685E+03
 4.688569666860E+00 3.524547415091E+00 -2.021472233880E+00 3.160790182798E+00 -6.262421454380E+00 -3.373418839793E+00 1.826463553636E+00 -6.833234536296E+00 4.988450796468E+00 -3.173460456806E+00 -1.653222844568E+00 -7.082230452120E+00 1.715392864905E+00 -4.229896994979E+00 -1.938135848813E-01 -1.661360571166E+00 1.644801059258E-01 3.869955373481E+00 7.923208475152E+00 7.084636587413E+00 -1.228776718432E+01 2.239212707400E+03
 -7.819583283542E+00 -3.372189101490E+00 2.517961214568E-01 4.098076179822E+00 -3.997035489999E+00 -7.350368898638E-01 5.200643489052E+00 -8.838043109173E+00 1.136617330110E+01 1.475581772095E+00 -6.880144922454E+00 -5.834267775878E+00 2.515153744840E+00 -2.515733505632E+00 3.703146736516E+00 5.205682687235E+00 -5.740806937029E+00 -1.311840126361E+00 -3.729082334144E+00 -6.793955691840E+00 2.156456128864E+01 6.794370341865E-01 2.239440165505E+03
 1.983948017653E+01 1.217406608266E+01 1.435842843421E+01 -2.638504870851E+01 3.421023612780E+01 9.524278137371E+00 -2.474578773647E+01 5.240602413487E+01 -5.827372669052E+01 2.700298519182E+00 3.222595585342E+01 4.201505844788E+01 -1.494234125106E+01 2.211737629532E+01 -1.323144177255E+01 -1.523164225920E+01 2.221079457225E+01 -5.137759123257E+00 8.246411879883E-01 1.679105266289E+00 -6.600236623909E+01 2.564163384224E+00 2.988068687506E+00 2.221228845407E+03
 6.861297705234E+00 1.020528503688E+01 9.880857892195E+00 -5.539241035764E+00 5.811248085573E+00 -1.229132105908E+00 -3.797221646345E+00 7.360425374811E+00 -9.695140389326E+00 -5.544801199935E-01 6.281263465057E+00 5.847413079778E+00 -2.516901158722E+00 3.455946716412E+00 -2.096881542671E+00 -2.965824201509E+00 4.462117149470E+00 3.238630923233E-01 8.767094889121E+00 -2.125335852457E+00 -2.805919973088E+01 5.307111315720E-01 2.351822896247E-01 -3.629680224316E+00 2.239317235825E+03
 -3.351357305671E+00 -2.291863249697E+01 -7.844896657177E-01 -3.619916904785E+01 5.846195117648E+01 3.047132097087E+01 -3.480433044433E+01 8.560352805573E+01 -8.253700444642E+01 1.600198091007E+01 3.934915015939E+01 7.373624831366E+01 -2.286798639558E+01 3.944923419289E+01 -1.466953556769E+01 -1.088665160099E+01 2.253434729724E+01 -2.141493111254E+01 -5.106703706473E+01 -1.193281665859E+01 1.568559046775E+01 7.915616287606E+00 2.188240170885E+00 -2.957262501067E+01 -2.824216095591E+00 2.175738828667E+03
 -3.243355047084E+01 -1.040518432197E+01 -1.774279321167E+01 5.185046432263E+01 -7.025377162810E+01 -2.457983406350E+01 5.041971380430E+01 -1.090244111446E+02 1.180913732960E+02 -7.945215599654E+00 -6.355617963768E+01 -8.800450499190E+01 3.054262927376E+01 -4.599574646158E+01 2.644954377363E+01 2.919291977225E+01 -4.312386643968E+01 1.328430973150E+01 1.441481236637E+01 -4.991750538604E+00 1.015418169893E+02 -5.575690023592E+00 -6.168751310825E+00 3.955270443448E+01 5.955198910536E+00 6.490752236731E+01 2.158966028072E+03
 1.964076841149E+01 3.148433403362E+01 2.354114934948E+01 -4.549216256577E+00 -9.425358009899E-01 -1.103535643068E+01 -1.138655823193E+00 -3.170427695261E+00 -4.027425369088E+00 -6.103582572149E+00 6.249332987317E+00 -4.443151225708E+00 -4.844697174228E-01 -1.778403120246E+00 -2.120789782496E+00 -5.665814015312E+00 6.207566987985E+00 6.994022032557E+00 3.585950444640E+01 2.555012485642E-01 -7.737527576808E+01 -1.119591073004E+00 3.962746751575E-01 -1.461406729496E+00 -2.958915014170E+00 1.036263949849E+01 -1.660116396172E+00 2.230891731488E+03
 7.897678559552E+01 8.431505425290E+01 5.420441361529E+01 -3.474832268477E+01 2.549379118985E+01 -1.728755626917E+01 -3.117918692144E+01 4.582575543395E+01 -7.308550328730E+01 -1.776597298665E+01 5.126074930695E+01 2.785673881496E+01 -1.612015593650E+01 1.378468424656E+01 -2.343454718930E+01 -3.750349595242E+01 4.321334548548E+01 1.822136193976E+01 9.104838935202E+01 2.753826225761E+01 -2.714878520968E+02 -4.054600003159E+00 7.343740468265E+00 -2.163110994932E+01 -8.482728949072E+00 3.201942528477E+00 3.429360334103E+01 -2.324126536259E+01 2.155373895197E+03
 -5.465314500263E+00 -1.850195390755E+00 -4.724362306297E+00 1.114680449106E+01 -1.556119418543E+01 -5.512251197369E+00 1.038163274002E+01 -2.322039031659E+01 2.469631600927E+01 -2.298910645900E+00 -1.310716210931E+01 -1.914924355267E+01 6.560896193449E+00 -1.022105678943E+01 5.140793207983E+00 5.358786136205E+00 -8.551459153977E+00 3.499084800322E+00 4.159765412104E+00 1.001570265359E+00 1.850223790495E+01 -1.573276551905E+00 -1.025670478044E+00 8.568116920870E+00 1.393298312602E+00 1.471951773753E+01 -1.763345912767E+01 -3.743199838127E-01 6.156456731149E+00 2.236966765306E+03
 2.417537357789E+01 3.264281490198E+01 1.064173798801E+01 1.083023786803E+01 -2.572165967056E+01 -2.049729463659E+01 9.703269731876E+00 -3.334772972118E+01 2.401570016495E+01 -1.410895655772E+01 -6.988835626967E+00 -3.255714534495E+01 8.004329441668E+00 -1.816366345586E+01 7.594729998301E-01 -5.518230027332E+00 2.823084747677E-01 1.722671674318E+01 5.073419083567E+01 1.841527872761E+01 -8.077885214369E+01 -6.015927909753E+00 1.399969241411E+00 1.045180664918E+01 -1.909905620052E-01 3.675170549438E+01 -2.583133075930E+01 -1.088467638066E+01 -2.490653646134E+01 -6.509329391516E+00 2.213292561887E+03
 4.123232676278E+00 -2.147330858302E+00 -2.490348035091E+00 -5.782454237608E+00 8.040386887481E+00 4.106308815258E+00 -6.874295386024E+00 1.432132466771E+01 -1.543891336198E+01 6.977550811169E-01 8.109082481774E+00 1.107568046559E+01 -3.842796428235E+00 5.400754309319E+00 -3.943453024846E+00 -4.503474040717E+00 5.833751592515E+00 -1.340709704930E+00 -4.558777606777E+00 4.458003503861E+00 -8.682615483960E+00 2.162496230847E-01 1.267724464235E+00 -4.667452318893E+00 -1.409323755607E-01 -8.024047295843E+00 1.038311541766E+01 1.466498136504E+00 -3.413457957803E+00 2.050635971921E+00 2.900452446546E+00 2.239043064089E+03
 1.976775830194E+01 1.746902960531E+01 7.443383537279E+00 -6.173120833845E+00 2.781526519843E+00 -4.315998803356E+00 -6.954019702887E+00 8.467269252204E+00 -1.522627619350E+01 -5.425961318677E+00 1.111344902051E+01 3.779175475035E+00 -2.892354499148E+00 1.182019199421E+00 -6.006433901859E+00 -9.870768637677E+00 1.024069240719E+01 5.770465961510E+00 2.123454304513E+01 1.201428232245E+01 -6.241753522723E+01 -2.007603630614E+00 2.328500225820E+00 -3.635897331937E+00 -1.217208432720E+00 3.730549183278E+00 5.751791197164E+00 -4.594258027845E+00 -2.012038927001E+01 7.018528660524E-01 -8.157078117572E+00 -1.133563015868E+00 2.235265657259E+03
 -3.708574785623E+01 -2.900251179589E+01 -1.551751441366E+01 2.073613596868E+01 -1.975694986558E+01 1.165727887132E+00 2.153698842403E+01 -3.678213748180E+01 4.914526816109E+01 6.521926462478E+00 -3.089770932193E+01 -2.505838234389E+01 1.127959911881E+01 -1.201150941211E+01 1.482396814253E+01 2.135657185137E+01 -2.501931016894E+01 -5.910126556189E+00 -2.921187791041E+01 -1.932915913217E+01 1.176629517998E+02 1.720347944142E+00 -4.885670969070E+00 1.432644872790E+01 3.177545662192E+00 8.595275716144E+00 -2.682568003514E+01 6.692095525542E+00 3.817322942915E+01 -4.925122670644E+00 6.704447539229E+00 3.973319955770E+00 9.817665066049E+00 2.220052909123E+03
 5.231564198346E+01 5.465332274726E+01 3.473871762519E+01 -2.345049759861E+01 1.769377164681E+01 -1.067800865820E+01 -2.138273912703E+01 3.198830983311E+01 -4.999561489656E+01 -1.160409831385E+01 3.469905722512E+01 1.970713786806E+01 -1.109808919934E+01 9.706398070807E+00 -1.593532389663E+01 -2.529071839629E+01 2.915197821953E+01 1.180871808082E+01 5.880286667465E+01 1.906909830608E+01 -1.787769958280E+02 -2.676214684058E+00 5.034170543898E+00 -1.476815991869E+01 -5.510474502156E+00 1.077056490785E+00 2.385300750851E+01 -1.491856442571E+01 -5.641380957716E+01 4.283787550054E+00 -1.600200562702E+01 -2.529148569060E+00 -1.340066903699E+01 2.562116843258E+01 2.203575105069E+03
 7.312643118328E+00 -3.252312824582E+00 1.818920651048E+00 -1.864098033776E+01 2.701863645449E+01 1.186185123388E+01 -1.867716113817E+01 4.193962849513E+01 -4.360051466524E+01 4.621991417737E+00 2.245364644347E+01 3.443689466642E+01 -1.146297846230E+01 1.797000306163E+01 -9.331015158688E+00 -9.423310740505E+00 1.466499458009E+01 -6.857004565876E+00 -1.390676181933E+01 9.889920613458E-01 -1.983075199173E+01 2.514357893610E+00 2.130327812361E+00 -1.469302588241E+01 -1.651481977139E+00 -2.723219363931E+01 3.142858381762E+01 2.864806612224E+00 -7.308849544144E+00 6.809736986417E+00 1.261631361208E+01 -4.187847358526E+00 -9.321093426285E-01 8.331011721585E+00 -5.368622368106E+00 2.228275594590E+03
 -7.278324116259E+01 -9.646802317797E+01 -3.362635962776E+01 -2.674347685834E+01 6.846402121674E+01 5.763323372021E+01 -2.397106342788E+01 8.764941418453E+01 -6.009281359178E+01 4.010042510526E+01 1.504662997831E+01 8.697803200812E+01 -2.083360995365E+01 4.881753665548E+01 -1.019041560118E-01 1.833210642231E+01 -4.328194823991E+00 -4.853019630466E+01 -1.464431062763E+02 -5.239605847718E+01 2.431836046908E+02 1.694187463684E+01 -4.402065638124E+00 -2.704417873894E+01 1.227166074352E+00 -1.010274522949E+02 6.818327734603E+01 3.172533359900E+01 7.527795557738E+01 1.727628199618E+01 7.757847800599E+01 -7.658608725829E+00 2.388890786219E+01 -2.149569642164E+01 4.845732576683E+01 -3.400472036442E+01 2.022714892025E+03
 1.337218693511E+01 3.806081880486E+01 -3.148199562244E+00 5.613090077334E+01 -9.289961410912E+01 -4.847473825520E+01 5.161404660569E+01 -1.314490128308E+02 1.240317434621E+02 -2.810632583794E+01 -5.778293564549E+01 -1.155497166146E+02 3.507900475332E+01 -6.279364059913E+01 1.992361029335E+01 1.170995843022E+01 -3.088103465058E+01 3.671528085696E+01 8.507230174340E+01 2.979288270892E+01 -4.358481278522E+01 -1.418999488563E+01 -1.752588224556E+00 4.599794507942E+01 4.945192766218E+00 1.051186280368E+02 -1.006128269161E+02 -1.629110209558E+01 -1.188714893937E+01 -2.328716912577E+01 -6.222909980466E+01 1.146602196340E+01 -8.850673318807E+00 -8.669451137425E+00 -6.354567623112E+00 4.246111816922E+01 1.708379656261E+02 2.069742552008E+03
 -6.236555194222E+01 -1.119443121811E+02 -5.471231102028E+01 -3.736450795218E+01 8.364143453328E+01 6.981458711306E+01 -4.136278238165E+01 1.217416040587E+02 -9.712560231588E+01 4.035434974037E+01 3.391555355953E+01 1.116621372019E+02 -2.946440942712E+01 5.955144869091E+01 -1.123941924398E+01 5.187755583608E+00 1.044539321718E+01 -4.996358601380E+01 -1.644520487375E+02 -2.891957601859E+01 2.342897880463E+02 1.569714394801E+01 1.973920678184E-01 -3.655015293834E+01 2.874420359342E+00 -1.180924196146E+02 9.177426108426E+01 3.894882158863E+01 6.971052361950E+01 2.126748701035E+01 8.238944008682E+01 -1.335514116480E+01 1.970116028593E+01 -1.018197541846E+01 4.368665212926E+01 -4.407636951126E+01 -2.302693463348E+02 1.910248226624E+02 1.977075221278E+03
 -1.856855111886E+01 -2.086900293143E+01 -1.112938300411E+01 3.866817203956E+00 7.571202627831E-01 7.002278974355E+00 3.580538943222E+00 -1.412539937168E+00 7.944791132558E+00 5.908418104432E+00 -7.531995587589E+00 1.599380833438E+00 1.139616250511E+00 1.283235815198E+00 4.016172992523E+00 7.697108971643E+00 -7.607352208759E+00 -6.588081367540E+00 -2.570536682455E+01 -8.699535034746E+00 6.282746376086E+01 1.974811158994E+00 -1.587955908474E+00 1.618700869574E+00 1.457880161831E+00 -7.865723327492E+00 -7.972451943927E-01 6.097907803126E+00 1.973659198636E+01 2.287444352425E-01 9.835439792446E+00 6.276965906016E-02 5.119851035773E+00 -8.020303756065E+00 1.295658220121E+01 -1.217589214297E+00 -2.849865578868E+01 1.454382862926E+01 -2.819965796038E+01 2.235497585108E+03
 -1.524574514678E+01 -4.479269145738E+01 -1.912726908499E+01 -3.232276859248E+01 5.770965831038E+01 3.772750422781E+01 -3.412165924303E+01 8.706152161383E+01 -7.978452606813E+01 1.923705184511E+01 3.526424887457E+01 7.560074126634E+01 -2.243832280520E+01 3.983339874418E+01 -1.370962781564E+01 -7.924511913841E+00 1.883232840545E+01 -2.500138218848E+01 -7.453170834002E+01 -8.440693360437E+00 6.567714428774E+01 8.167748005412E+00 2.364258663592E+00 -2.818145581800E+01 -4.525390069127E-01 -7.054011719382E+01 6.534377435322E+01 1.735087921415E+01 1.805938878479E+01 1.458400104712E+01 4.263836303915E+01 -9.239207811364E+00 6.050103678779E+00 4.946239074596E+00 1.051203113199E+01 -2.887554099494E+01 -1.178248421633E+02 1.121624785193E+02 -1.410053566180E+02 -1.147411033636E+01 2.160134707411E+03
 -5.275702326517E+01 -3.074764583497E+01 -2.340541560796E+01 5.068002467257E+01 -6.154563584635E+01 -1.487244239025E+01 5.083136908463E+01 -1.012893817082E+02 1.179264986515E+02 6.824584391987E-01 -6.721054170654E+01 -7.764872592145E+01 2.925070372166E+01 -3.960931518328E+01 2.980524891737E+01 3.714192413506E+01 -4.915075635339E+01 3.110300749093E+00 -1.551541354221E+01 -2.110960277166E+01 1.655791188616E+02 -1.983071310944E+00 -8.304046157928E+00 3.754276705421E+01 6.372213695396E+00 4.867903231521E+01 -7.539449549301E+01 4.412866736350E+00 5.459065911632E+01 -1.539298205135E+01 -1.053407856310E+01 1.015868906270E+01 1.231587082875E+01 -3.521275201394E+01 3.725240599640E+01 2.725618196076E+01 2.399190935109E+01 -7.046849911153E+01 4.896051692068E+01 -7.465675590428E+00 4.568163331571E+01 2.162647900115E+03
 9.088872138888E+01 1.403599429714E+02 6.488118292615E+01 3.522095637501E+01 -9.029538822139E+01 -8.129545861714E+01 3.772827759713E+01 -1.251133686697E+02 9.033789122202E+01 -5.090640152754E+01 -2.529020895800E+01 -1.195600765348E+02 2.947887234219E+01 -6.497623882545E+01 5.338056166397E+00 -1.718010457265E+01 -2.311176987733E-02 6.203170061600E+01 2.033737683445E+02 4.842276783210E+01 -3.248534089626E+02 -1.997804601387E+01 2.750784574118E+00 3.673649522538E+01 -4.029218680424E+00 1.350443417290E+02 -9.526152164946E+01 -4.717325963230E+01 -9.857251028321E+01 -2.293980568055E+01 -1.005143782134E+02 1.315675977959E+01 -2.829853869976E+01 2.254729536862E+01 -6.275981954211E+01 4.762663804836E+01 2.823653836298E+02 -2.227791685850E+02 3.130459512841E+02 3.683285792342E+01 1.622657191972E+02 -4.043969135393E+01 1.863390454796E+03
 4.737072491338E+01 2.107711573271E+01 1.722594843601E+01 -5.182739767436E+01 6.538319560586E+01 1.958502061856E+01 -5.274395289628E+01 1.073826829556E+02 -1.218153731453E+02 2.026234239764E+00 6.786879700065E+01 8.341478751360E+01 -3.032634871496E+01 4.245351724834E+01 -3.018950170834E+01 -3.625206250988E+01 4.884035410365E+01 -6.427329710455E+00 2.910878390483E+00 1.984585982369E+01 -1.436591748370E+02 2.710982298961E+00 8.285100523766E+00 -3.888268530126E+01 -5.817324012260E+00 -5.550708403266E+01 7.974157824380E+01 -1.153055644930E+00 -4.816257740499E+01 1.645139998490E+01 1.577182884326E+01 -1.102126694210E+01 -1.071008040723E+01 3.389089579940E+01 -3.321012821446E+01 -2.966290322756E+01 -3.912706125766E+01 8.153109925692E+01 -6.696309979269E+01 5.271968432908E+00 -5.487062538261E+01 8.000967767458E+01 6.188113336561E+01 2.157987080404E+03
 -9.612329281549E+01 -6.691027963463E+01 -4.662726389795E+01 7.845964101029E+01 -8.982096214012E+01 -1.458242479043E+01 7.809443665163E+01 -1.500291634397E+02 1.810559450641E+02 6.877750592662E+00 -1.062032744953E+02 -1.123644695375E+02 4.417432614789E+01 -5.698291422938E+01 4.760786706178E+01 6.217965219810E+01 -7.975674750025E+01 -1.944053898302E+00 -4.908903780185E+01 -3.887879267519E+01 3.071523633429E+02 -1.047273529875E+00 -1.368801397302E+01 5.684044442138E+01 1.098383657164E+01 6.360867123985E+01 -1.115365336846E+02 1.286778350625E+01 1.002194764393E+02 -2.244837484094E+01 -5.667114788002E+00 1.487330621517E+01 2.316137909368E+01 -5.965142043272E+01 6.780971236622E+01 3.875144509173E+01 7.070245775920E+00 -8.972061302414E+01 4.365489047316E+01 -1.640001091442E+01 5.559185701228E+01 -1.224880656896E+02 -2.246939375155E+01 1.228596600727E+02 2.044554785622E+03
 -1.882444997052E+01 -1.092177629928E+01 -8.714452973649E+00 1.877613581070E+01 -2.293979262675E+01 -5.680792487965E+00 1.870121401026E+01 -3.747807229379E+01 4.329821705832E+01 -5.723139502798E-02 -2.458107391722E+01 -2.890278753595E+01 1.070721209359E+01 -1.474544888965E+01 1.086721764614E+01 1.339954311769E+01 -1.788112454211E+01 1.539291643258E+00 -4.957312019330E+00 -6.911106842498E+00 5.903520091700E+01 -8.217074958694E-01 -2.947967106898E+00 1.383950984176E+01 2.380811426215E+00 1.842372428157E+01 -2.787885587340E+01 1.509594567536E+00 1.951605301829E+01 -5.763941340194E+00 -4.372661070296E+00 3.718237692161E+00 4.249267464995E+00 -1.265755942287E+01 1.332593389658E+01 1.013187957085E+01 1.045011129830E+01 -2.709315642076E+01 1.954916111248E+01 -2.511325463488E+00 1.751244508496E+01 -2.873325329267E+01 -1.685207040437E+01 2.934511701450E+01 -4.473283602329E+01 2.230356232907E+03
 4.118367128241E+01 3.112344215555E+01 1.546859336213E+01 -2.237599871123E+01 2.100160634428E+01 -1.247652560956E+00 -2.374459762450E+01 4.012820362279E+01 -5.382687662318E+01 -7.487705758032E+00 3.386931383317E+01 2.703730969295E+01 -1.221965669198E+01 1.274881278218E+01 -1.652793612281E+01 -2.387123208283E+01 2.765051684146E+01 6.862223325314E+00 3.189623628237E+01 2.287901842060E+01 -1.289865368617E+02 -2.187742799236E+00 5.567212172297E+00 -1.543757718292E+01 -3.277432823260E+00 -8.822877119990E+00 2.908377311641E+01 -7.058070599569E+00 -4.200860982093E+01 5.262346660842E+00 -7.923407348871E+00 -4.504430896065E+00 -1.104219529931E+01 2.317606876320E+01 -2.823961594245E+01 -9.038694254922E+00 2.508332467982E+01 8.164632662768E+00 1.170320383131E+01 8.936866029008E+00 -5.209937784714E+00 3.880344370091E+01 -2.577612704199E+01 -3.732397553404E+01 6.577701630577E+01 1.389651959564E+01 2.214957450891E+03
 -1.333198231466E+01 -2.161184654807E+01 -6.674562055858E+00 -1.138849066844E+01 2.274943262078E+01 1.586680400948E+01 -1.080505108588E+01 3.137391087952E+01 -2.590894537320E+01 1.000640515545E+01 9.920162218183E+00 2.898327044638E+01 -7.792639628344E+00 1.579817934791E+01 -2.867271000697E+00 1.077760885564E+00 3.474430265300E+00 -1.251343221377E+01 -3.553110859415E+01 -1.107643505191E+01 4.632869240758E+01 4.333104638583E+00 -3.156187429765E-01 -1.013975232622E+01 -2.483201158314E-01 -2.982658279274E+01 2.398870907557E+01 7.662119398252E+00 1.393622224531E+01 5.775665169015E+00 2.041825460680E+01 -2.898754633420E+00 4.897498595878E+00 -2.107888132913E+00 8.760454086421E+00 -1.104629159868E+01 -5.716147151856E+01 4.948467867857E+01 -6.284214823821E+01 -6.510158766578E+00 -3.406907483745E+01 1.338521064877E+01 7.513375760319E+01 -1.721633904135E+01 1.315686882224E+01 5.230646682979E+00 2.701392909761E+00 2.225327701095E+03
 6.815583914270E+01 6.235483183972E+01 4.458826494378E+01 -4.573844897281E+01 4.709970690063E+01 -1.538698931397E+00 -4.275181791594E+01 7.751206966340E+01 -1.001829203209E+02 -8.936989226978E+00 6.210808739152E+01 5.623181364297E+01 -2.400229478022E+01 2.885873491430E+01 -2.731577177603E+01 -3.820460815056E+01 4.798302741556E+01 7.024988599814E+00 5.660002207346E+01 2.135683636295E+01 -2.298625745989E+02 -4.663455014823E-01 7.698268240710E+00 -3.156453572219E+01 -8.330014034665E+00 -2.508811636657E+01 5.814591277973E+01 -1.526262177993E+01 -7.335615708522E+01 1.166115397916E+01 -6.335156805271E+00 -6.748997102394E+00 -1.634646818095E+01 3.766646635191E+01 -4.893952823201E+01 -1.827928939868E+01 2.334398921728E+01 3.406146481306E+01 9.492862202075E+00 1.396980826225E+01 -1.507090756318E+01 6.941664311262E+01 -2.798068986466E+01 -6.684105784225E+01 1.160898947315E+02 2.522103233567E+01 -4.127536852318E+01 -4.642556056566E-01 2.165809993289E+03
 1.401049482637E+00 1.060233497685E+01 8.398684431076E+00 4.860814434108E+00 -8.800615191286E+00 -7.249780893084E+00 6.712469162500E+00 -1.568649513446E+01 1.474812578615E+01 -2.553384870707E+00 -6.602845304948E+00 -1.280442561013E+01 3.839815732122E+00 -6.198289968553E+00 3.366533926502E+00 2.877304359427E+00 -4.186488656080E+00 3.497217726912E+00 1.453033173186E+01 -3.735604704040E+00 -1.250526349349E+01 -6.419811304134E-01 -1.097168420559E+00 4.485504615277E+00 -5.839794105617E-01 1.136876319273E+01 -1.124442890233E+01 -4.137822309394E+00 -2.978900949351E+00 -2.277754869804E+00 -6.233771789559E+00 2.195246193862E+00 -2.443597340365E-01 -2.069744730286E+00 -1.586010217045E+00 5.135061710260E+00 1.736069612382E+01 -1.690186178318E+01 2.484637082547E+01 1.698219699937E+00 1.443201298567E+01 -9.166267641321E+00 -2.714873901466E+01 1.092672402854E+01 -1.159420531200E+01 -3.381137987131E+00 2.462031055380E+00 5.253651035299E+00 2.728637932841E+00 2.237533511772E+03
 1.105923138796E+01 3.904028560442E+01 2.115126899738E+01 2.460611024901E+01 -4.406132585403E+01 -3.065486832851E+01 2.776040846977E+01 -6.919759310382E+01 6.350293714309E+01 -1.449218572557E+01 -2.801553899708E+01 -5.925359220553E+01 1.738281022898E+01 -3.050305906454E+01 1.186492618868E+01 7.769213235860E+00 -1.564934780010E+01 1.906625041059E+01 6.128104532394E+01 1.320302152199E+00 -5.522705480869E+01 -5.521121062834E+00 -2.565074489387E+00 2.156975987445E+01 -4.062481563052E-01 5.482135417725E+01 -5.122721461876E+01 -1.513272553545E+01 -1.464290198213E+01 -1.126392026817E+01 -3.257774113770E+01 7.948440566995E+00 -4.120870437006E+00 -5.015474618066E+00 -8.393106410221E+00 2.289678257042E+01 9.064886294310E+01 -8.628111533961E+01 1.130289471593E+02 8.933137853065E+00 6.475262506631E+01 -3.735261337741E+01 -1.285376659183E+02 4.459881830088E+01 -4.557201417627E+01 -1.402381253965E+01 5.522358911949E+00 2.621886166998E+01 1.154615259929E+01 -1.231400489080E+01 2.188489851454E+03
 -1.713572248440E+01 -2.331172814928E+01 -1.537369073878E+01 3.806360400211E+00 6.819074914436E-01 7.995592779571E+00 2.193858891788E+00 6.064560799948E-01 5.560524019147E+00 5.374148736398E+00 -6.270042108928E+00 2.573378696191E+00 7.854672855318E-01 1.305989261186E+00 2.803345459837E+00 6.044308916304E+00 -6.259394010371E+00 -6.076022022213E+00 -2.742927273415E+01 -4.168291640134E+00 6.275998413090E+01 1.387173306725E+00 -9.156785686082E-01 1.437062127033E+00 1.963805239964E+00 -8.064577828111E+00 2.555992112192E-01 7.137069527232E+00 1.924762922971E+01 2.557202695440E-01 9.245614491795E+00 -5.956999359242E-01 4.373725692352E+00 -6.641779686998E+00 1.248979814380E+01 -1.772073801321E+00 -2.691622178884E+01 1.371796287045E+01 -2.989988887820E+01 -5.127791720787E+00 -1.279038698968E+01 -5.433635726243E+00 3.746448301279E+01 3.026403421660E+00 -1.328482870360E+01 -1.849852122427E+00 7.234267032821E+00 -6.303053632111E+00 1.315029012174E+01 2.566058006811E+00 1.062709344542E+01 2.235380433176E+03
 2.337259112895E+01 1.932799110670E+01 1.680419393667E+01 -2.169904157424E+01 2.560515738439E+01 3.817033683907E+00 -2.009927147546E+01 3.999115990874E+01 -4.752389198783E+01 -6.462955820350E-01 2.773837053305E+01 3.088388603443E+01 -1.194077697170E+01 1.623030017200E+01 -1.161609550318E+01 -1.482417609165E+01 2.014085141386E+01 -8.360768724328E-01 1.285938966522E+01 4.731906137459E+00 -7.948057231191E+01 1.190432333216E+00 2.907375267460E+00 -1.566693303035E+01 -3.508746732069E+00 -1.869220937101E+01 3.023650826952E+01 -4.127246198948E+00 -2.550277286672E+01 6.352859908889E+00 3.428661753790E+00 -3.449241396453E+00 -5.092352918803E+00 1.436218917733E+01 -1.713499476698E+01 -1.047857692930E+01 -7.247349354212E+00 2.813632756201E+01 -1.392433475828E+01 3.743471376551E+00 -1.562312837609E+01 3.152348658858E+01 1.014162920610E+01 -3.163135218985E+01 5.013224050871E+01 1.160872479315E+01 -1.561287851221E+01 -4.728393070076E+00 -3.028936655466E+01 2.472348701938E+00 1.198121848769E+01 3.549743539521E+00 2.227306531339E+03
 -2.582647874004E+00 -7.446514705319E+00 -1.613644355480E+01 1.413993169935E+01 -2.038193396047E+01 -5.024920481690E+00 9.858747611318E+00 -2.500224954579E+01 2.558354018107E+01 -4.613021636752E+00 -1.343825714394E+01 -2.247821778605E+01 7.488464061011E+00 -1.319985769339E+01 3.455963320746E+00 2.459247619897E+00 -7.329420742306E+00 6.188343482270E+00 2.412152992921E+00 1.313496918959E+01 2.047334876667E+01 -3.571126762921E+00 4.401762297892E-01 1.050950848990E+01 2.981475018133E+00 1.897949235316E+01 -2.013537391185E+01 1.789255908266E+00 5.750222655828E+00 -4.991047556937E+00 -1.040778676761E+01 1.015620745989E+00 -1.239358069301E+00 -2.537091065010E+00 3.722674216500E+00 7.507144765394E+00 2.796105463788E+01 -3.307588948672E+01 2.505804394749E+01 1.159758878584E+00 1.630825439898E+01 -1.456645625838E+01 -3.034912788509E+01 1.545711447776E+01 -2.053203622394E+01 -5.676839814387E+00 2.097043844589E+00 8.312112886973E+00 1.234122755972E+01 -8.644630621389E-01 -1.077510137234E+01 -2.507486239828E-01 7.577559810308E+00 2.230769569737E+03