#BIOSYM hessian 1
@Type: Hessian Update
@Units
 distance: 	A
 energy: 	Kcal/Mol
#header
@natom 5

#label
L1      L2      L3      L4      L5

#element
Li Li Li Li Li

#matrix
15
 6.605822695358E+03
 4.840921121603E+03 7.515983132071E+03
 6.135407729687E+02 4.868602794352E+02 2.378317263945E+03
 -1.764308821020E+03 -1.542301740050E+03 -4.050928724229E+02 2.882031760431E+03
 -4.295653943011E+03 -5.266823706635E+03 -5.394410801236E+02 1.901295248262E+03 6.118030917550E+03
 5.139061296759E+02 6.048900751872E+02 -5.819551886857E+01 -2.595444523608E+02 -5.212653780388E+02 2.128791220414E+03
 -2.074077873837E+03 -2.599802444252E+03 -2.125848986405E+02 6.547891909294E+02 2.050304709937E+03 -4.261501765236E+02 2.902182375697E+03
 1.663937483066E+03 2.520488938146E+03 2.206913294389E+02 -5.583006855698E+02 -1.383131661673E+03 5.388048884384E+02 -5.547829823893E+02 2.259397650425E+03
 3.180934400866E+03 3.945301633869E+03 2.624465055523E+02 -1.123882874742E+03 -3.121044768646E+03 5.050104373919E+02 -9.623319537342E+02 1.000193103318E+03 3.421093900707E+03
 2.008406667735E+03 2.323781218325E+03 1.940141708190E+02 -6.215315370685E+02 -2.109802352235E+03 3.222110306228E+02 -7.301846468889E+02 7.660286710641E+02 1.032023449296E+03 2.952434389225E+03
 -1.013691263491E+03 -6.394372693724E+02 -7.174622050256E+01 1.829873528022E+02 1.439844597638E+03 -8.463742001578E+00 4.078732649616E+02 -8.730456670544E+02 -4.749206893746E+02 -2.076969305803E+02 1.741620580108E+03
 -3.462083338235E+03 -3.937024602222E+03 -3.602922381248E+02 1.033345145487E+03 3.700526547590E+03 -5.876745909527E+02 1.283027448160E+03 -1.340633839089E+03 -1.834533812408E+03 -1.234138147036E+03 3.349888837406E+02 4.348889677164E+03
 -2.534996547523E+03 -3.022598155576E+03 -1.898771727526E+02 1.089865527494E+03 2.453856337038E+03 -1.504225313911E+02 1.488137074805E+03 -1.316882486157E+03 -2.126743021657E+03 -1.368278752269E+03 6.305275763068E+02 2.379848891597E+03 3.566118818180E+03
 -1.195513398187E+03 -1.889364973458E+03 -9.636430827508E+01 1.631982460075E+01 1.332925973846E+03 -6.139658435659E+02 6.964074517341E+02 -2.828631391143E+02 -1.349529279150E+03 -7.723106065666E+02 5.718638794028E+02 1.242143009968E+03 1.255096728364E+03 2.508284380000E+03
 -8.462979652486E+02 -1.100027386371E+03 1.857010828162E+01 7.551750539339E+02 4.812246792308E+02 2.529145726853E+02 3.180395807701E+02 -4.190554821347E+02 -1.131709105803E+02 -3.141105037277E+02 2.201417681389E+02 6.744570850936E+02 8.719383427531E+01 8.177164211405E+02 1.408075265233E+03

