#BIOSYM hessian 1
@Type: Hessian Update
@Units
 distance: 	A
 energy: 	Kcal/Mol
#header
@natom 19

#label
L1      L2      L3      L4      L5      L6      L7      L8      L9      L10     L11     L12     L13     L14     L15     L16     L17     L18     L19

#element
Li Li Li Li Li Li Li Li Li Li Li Li Li Li Li Li Li Li Li

#matrix
57
 2.926267551622E+01
 -3.431146952540E+00 1.885906923548E+01
 -1.931396673758E+00 1.218765177232E+00 1.112159939314E+01
 1.407719307334E+00 1.183126162778E+00 1.063008191870E-01 1.529248064222E+01
 1.351459890273E+00 1.372356978961E+00 -4.031690792268E-01 1.014582756667E+00 2.019980214936E+01
 -1.657921419927E-01 9.570624579269E-01 -5.893420789160E-01 -7.791101796228E-02 2.699413875011E+00 1.694306254478E+01
 -5.574373600696E-02 -1.020783633135E+00 -5.101949973374E-01 -2.630617033776E-01 -1.917152011058E+00 1.067877828864E+00 2.531428618943E+01
 -1.297884973816E+00 -7.016055527353E-01 1.384248839742E+00 -3.270692157937E-01 -8.467202898115E-01 -5.828532414432E-01 3.075756380562E+00 2.663157367790E+01
 3.756316574571E-01 -1.722086498738E-01 1.821703122841E+00 -1.390651129878E+00 -2.134131702419E+00 7.223672544903E-01 9.759681696179E-02 8.144541663487E+00 2.721532933515E+01
 1.406573854928E+00 1.454240888618E+00 -3.761869227334E-01 1.657861192998E+00 2.464939867383E+00 -3.262624101619E-01 1.241629006535E+00 -1.311436849717E+00 -2.516932795827E+00 2.190939279589E+01
 -4.253708393952E-02 -2.256493835781E+00 -5.090713697187E-01 2.544884997606E-01 4.797378701977E-01 1.153926185141E+00 -7.194220885985E-02 5.931514244272E-01 3.279132851737E+00 -6.991124127331E-01 3.059914150875E+01
 -1.745613940789E+00 -1.546197348401E-01 -6.821253288322E-01 -1.405993812208E-01 9.772940224728E-01 -5.002387599435E-01 -1.182591434683E+00 -5.821155585577E-01 7.117256673136E-01 -1.477004138443E+00 -2.383035668519E+00 1.932828848290E+01
 -1.654053795318E+00 -1.352820361475E+00 1.905119015071E+00 2.540649791054E-01 -1.639968540294E+00 -6.017054875058E-01 -3.477127588253E+00 4.294908075918E+00 2.106488497629E+00 -5.557305874009E+00 -5.600056007712E+00 -2.694601329120E+00 2.586694593229E+01
 4.972841545867E-01 -4.384553265334E-01 1.190285700052E+00 2.743550514042E-03 -7.569484312045E-01 6.681119999083E-01 2.059735864144E+00 -8.991100639470E+00 -1.213144807862E-02 -2.981782321392E+00 -3.007052748995E+00 -8.566856311692E-01 -6.673132189336E+00 1.715899910112E+01
 -1.369881791369E-01 1.363449573824E+00 -9.260714689173E-02 -3.005659134060E-01 -1.506116842592E+00 -4.931926723270E-01 -2.979634590352E-01 3.308220950231E+00 -1.006339140657E+00 -4.488276674646E-01 -4.605563101256E+00 -3.564160979737E+00 8.065687068943E+00 -2.493775924094E+00 2.422061216482E+01
 -3.445181133556E+00 1.963563165951E+00 5.084353492634E-01 -6.756539143003E+00 6.307100908703E-01 1.838641505002E+00 5.229973963048E-01 -1.979920639347E-01 -4.584054424952E-01 2.539403772138E-02 -2.416106125749E+00 -3.816042244500E-01 7.858339609173E-01 6.200147396199E-01 7.996388156792E-01 2.200636554882E+01
 3.856149076325E+00 -9.625549725229E+00 -1.821289339896E+00 -3.005423949706E-01 -1.210600304740E+00 -7.091065577433E-01 1.139003588356E+00 4.561149645429E-01 5.186804587403E-01 -1.413544027072E+00 1.080953362588E+00 7.741955549589E-01 7.486694572487E-01 -7.575109274135E-02 -5.590098441360E-01 2.723674687063E+00 2.213557904221E+01
 4.249824389565E-02 -2.471680942794E+00 -1.858706394850E+00 2.806973658252E+00 -7.992719543675E-01 -2.741921198238E+00 3.912135021193E-01 -3.306063854187E-01 -4.406314818836E-01 5.664850827815E-02 -2.107805055348E-01 4.364487903542E-01 -5.604749303727E-01 -7.340791989098E-02 2.799266314732E+00 3.638118746038E+00 6.107429375211E+00 1.273963683441E+01
 -5.005472234362E-01 -5.016947161865E-01 1.644488645667E+00 -4.034691065771E+00 -2.178528296807E-01 -2.822319856219E+00 -6.142485622564E-01 -1.685349637923E+00 -9.310580614198E-01 -1.032440806292E-01 5.685753836404E-01 2.672278695453E-01 1.205808268110E+00 1.707615579995E+00 9.205516170258E-02 6.754187159460E-01 6.915975233350E-01 -3.500281912072E-01 2.655341242850E+01
 -1.202942405572E-01 1.973458139668E+00 -2.606500488930E+00 -9.181670340090E-01 -9.089321616106E-01 -1.616079696210E+00 1.067189858244E+00 7.574341215733E-01 1.110930140592E+00 -1.938666217235E+00 1.880378916884E-02 3.661231346589E-02 1.468104747847E+00 -1.106353713997E+00 1.798367707255E+00 -1.252927059712E+00 5.591457794893E-01 -7.115334863124E-01 -3.494047461962E+00 2.435378861697E+01
 2.204428907778E-01 -1.943374489847E+00 1.177290074762E+00 -1.987383228400E+00 -1.651056425614E+00 -5.395613882371E+00 -1.228861088930E+00 1.166620275476E+00 -3.275482498354E+00 -9.275888910331E-02 2.628069518915E+00 3.534005163564E+00 -1.348741912433E+00 -1.705947582932E-01 -1.965793312209E+00 -1.353287229731E+00 -5.026634996831E-01 -1.077852977688E-01 3.346267021657E+00 -4.900282331841E+00 2.973023660553E+01
 -4.923286183785E-01 -2.023426815627E+00 7.507943465301E-01 9.359083783267E-02 -1.287856498978E+00 4.023529328256E-01 2.309149052170E+00 1.732228259947E+00 3.464542472784E+00 -1.020163871573E+01 1.789754253187E+00 3.259693962416E+00 -3.147446198004E+00 1.817101462043E+00 2.049367180921E+00 -3.246807832727E+00 5.898051862250E-01 -6.218334243268E-01 -2.159221782707E+00 2.468983593297E-01 2.194537501382E-01 2.568012353461E+01
 -2.765195713590E+00 -7.582563031059E-01 1.181953363058E+00 4.505373268258E-01 -2.097284510540E+00 1.063608675200E+00 2.966012676559E+00 5.265902519070E-01 1.404438942184E+00 -2.075458704184E+00 2.538198636320E-01 7.796351610703E-01 -9.110645021156E-01 -9.461621202972E-02 -5.026007388905E+00 -1.008199428211E+00 8.968969508715E-01 -3.972549837442E-02 2.225249110873E+00 -6.031598636809E+00 3.079641947522E+00 -2.733582730022E-01 2.555563346531E+01
 -6.958924966321E-01 7.190352491565E-01 -1.871736275566E+00 1.263625436684E+00 -2.348622627994E-01 -6.024780075158E-01 -1.045213028815E+00 3.755706158740E-01 1.068409208574E+00 3.990060750850E+00 -1.826165537967E+00 -4.244745593568E+00 6.450109685484E+00 -4.725549191755E+00 -2.688213630585E+00 -6.343056223749E-01 -4.281094385593E-01 -9.457023414406E-01 -1.042772194697E+00 5.381426124730E+00 -4.716050679214E+00 -4.826072794375E+00 -5.466584110836E+00 1.878249955490E+01
 -1.216722031239E+01 2.796757779809E+00 2.408508495592E+00 2.035953042320E+00 -8.999872876239E-01 3.392709126840E-01 8.917624878641E-01 4.460886461323E+00 -8.142851373863E-02 5.444468292338E-01 4.324616196956E-01 2.320585113013E+00 1.961623421829E+00 -3.108246216864E+00 -3.277753511889E-01 -7.736898889721E+00 -6.937638549888E+00 -1.015510294948E+00 -9.140030205814E+00 4.938458965278E-01 3.149276725848E+00 2.504348145607E+00 -1.080340399884E+00 1.011325751805E-01 4.039439723876E+01
 -1.161543630990E+00 -3.669144606968E-01 1.517036630202E+00 4.399642289436E-01 -3.981622124843E+00 -4.298883872236E+00 -2.207226124479E+00 1.663839278994E+00 -1.224785973178E-01 1.990826652946E+00 1.635802512368E+00 4.465857699621E-01 -7.818540530248E-01 -9.415837293230E-01 1.309974311791E+00 -5.053198794214E+00 -6.002691355517E+00 -8.442783784664E+00 2.277476290573E+00 -1.362264993727E+00 5.812888681118E+00 -2.388085911281E+00 3.011930398870E-01 -1.587432149909E+00 8.448357147541E+00 3.576360427591E+01
 2.725890571004E+00 -2.483621236368E+00 3.949597189890E+00 -1.011440640582E+00 -3.652499188956E+00 -5.068616323441E-01 -1.393947074613E+00 -1.919548318546E+00 -9.228586471429E-01 -1.589244895938E+00 -1.530733644631E-01 9.624074153532E-01 -2.470281601596E+00 1.813873952883E+00 1.292109194959E+00 -4.089072809999E+00 -5.983925703884E+00 -9.730026688347E-01 -1.148344963612E+00 4.976743746036E+00 -1.369502443774E+00 -1.329149043826E+00 -3.629391757022E+00 1.202382514588E+00 -8.833720389837E-01 -5.091139001249E+00 3.009769674868E+01
 2.408278410112E+00 1.184211551387E+00 -2.195619716518E+00 7.826238222043E-01 2.847949680164E+00 -1.301654911886E-01 -7.236797863037E+00 -1.043415963136E+01 -3.196905681224E+00 1.452276360160E+00 1.967699982382E+00 -6.754047749935E-03 -1.512146347200E+01 6.722511651641E+00 -3.243882014654E+00 6.150407450956E-01 -1.194063800291E+00 9.412778392577E-03 6.176800645020E-01 -4.780752293285E-01 1.977188946697E+00 -4.356320826241E+00 -2.098305898091E+00 -9.474726765779E-01 -5.883577064124E+00 -2.402160595247E+00 4.476826136155E+00 3.555332627522E+01
 1.187639962393E+00 2.277838576025E+00 -3.169987113990E-02 -5.688827193620E-01 2.309154396412E+00 -5.514417759835E-01 -7.118316677516E+00 -3.856103955290E+00 -9.145897300288E-01 3.670119900523E+00 -1.033144211058E+01 -1.537745102655E+00 7.072519188489E+00 -3.341573113787E+00 2.352157863298E+00 1.126885046491E+00 -1.501751849658E+00 -1.075502329527E+00 -1.630748428311E-01 -1.314305893720E+00 -2.613313439618E+00 -7.784328749788E-01 -2.105836545818E+00 8.628227144472E-01 -8.363893288506E-01 7.166745882201E-01 -2.527744827119E-01 -3.098374345562E+00 2.364345201610E+01
 4.225647892602E-01 -9.074468852870E-01 3.350861751496E+00 -7.168975762321E-02 -3.052046591515E-01 -3.218902524077E-01 2.547005704550E+00 2.976637913589E-01 -2.595042878604E+00 5.529020268347E-01 -1.948721419528E+00 -1.279553092168E+00 -1.514143300138E+00 1.956768904008E+00 -1.103782797308E+00 -1.020490274333E+00 -2.988219618541E+00 -1.647906686405E+00 2.435330568823E+00 -2.935973736189E+00 -2.174646664997E+00 8.078384520337E-01 1.229914384736E+00 4.267280120500E-02 -1.070955612517E+00 3.901322138489E+00 -3.516072175114E+00 -8.018743229988E+00 1.359885776933E+00 2.313664201127E+01
 -3.193380450529E+00 4.788013026369E-01 -6.144216399148E-01 1.064726144917E+00 -6.661874003419E-01 -1.385103406085E+00 -1.578237217683E+00 2.884974578555E-01 -1.255114881573E+00 -5.421973888055E+00 2.729040370356E+00 -1.695119453141E+00 2.408284072325E-01 -4.133996402048E-01 -4.955582593609E-01 -2.386147381024E+00 3.263602756457E-01 4.128242342697E-01 4.582920406484E-01 8.218935643090E-01 2.031887778872E+00 6.107569370912E-01 8.758510052361E-01 -2.774048325206E+00 -5.844752777364E+00 -2.710429835110E+00 4.736432335640E+00 -2.636066421080E+00 1.066268984490E+00 -2.493553974722E+00 2.217314610372E+01
 9.615196231504E-01 -2.212131311293E+00 5.201829261070E-01 -4.442828504537E-01 2.565118427225E+00 5.634436259203E-01 -5.529800497395E-01 -9.503770762748E-02 -1.728290191137E+00 3.053678550369E+00 -6.195839076433E+00 2.933124600753E+00 7.008997812423E-01 1.043519525433E+00 -8.965680190958E-01 1.343260861407E+00 -8.093084053536E-01 1.351889284221E-01 -1.070558235536E-01 -1.905731649472E-01 2.057723645716E+00 -1.384300718178E+00 -1.346088346126E+00 -5.310656082082E-01 4.354426607602E-01 -2.602740270218E+00 4.023692255537E+00 1.073615205329E+00 -9.371345120310E-01 -1.400506453197E+00 1.580511321942E+00 1.796040162393E+01
 3.150184072866E-01 1.896680500989E+00 -8.483117088751E-01 -8.275932788295E-01 1.965547728392E+00 2.136271155301E+00 -1.876672623524E+00 1.747386250417E+00 2.055871356995E+00 -2.113871160500E+00 3.299500049414E+00 -3.435943562045E+00 3.981712580726E-01 -2.520214958242E+00 8.629634171132E-02 5.522310085442E-01 -4.201500307569E-01 -1.826276148599E+00 -2.539139442986E+00 1.094354674562E+00 9.247682845833E-01 1.233615710361E-01 3.083406211691E+00 9.896013259220E-02 2.069209886683E+00 3.616949897551E+00 -3.141957465465E+00 -3.082043314202E+00 -7.391618837614E-01 -7.094424798784E+00 3.348987222486E+00 -4.863142495838E+00 1.805183249391E+01
 -6.651097903015E+00 -1.318835067207E+00 -3.190533523547E+00 -1.660569231239E+00 -1.594213157271E+00 1.548859283220E+00 -6.890637858540E+00 3.921558434783E-01 -2.389840584551E+00 -1.929730335363E+00 2.050139926361E+00 9.676637982144E-01 5.025127808599E-01 6.356209146887E-01 -1.478517983278E+00 8.418984982972E-01 2.536856236228E-01 -2.384513897966E+00 1.134315983814E-01 1.676797504630E+00 -1.110821521099E+00 1.948234235510E+00 8.163429611794E-01 3.692995477768E-01 -1.266049999706E+00 1.215695291073E+00 -1.411175893155E+00 -2.994436169446E+00 -2.393660886496E+00 -2.517693821834E-01 4.422554293540E-01 -2.742148622937E+00 5.674546470957E+00 2.223589746127E+01
 -4.210281775422E-01 -2.673324590083E+00 -1.455166874889E+00 3.081368202200E-01 -1.668747942510E+00 -1.176218840855E+00 1.565633093537E+00 -1.405711094629E+00 6.792463270709E-01 5.147972481319E-01 2.126746007783E-01 6.675340691862E-02 -1.405694237722E+00 7.312205766843E-02 4.191690468986E-01 -1.141187117554E+00 6.061766094671E-01 2.769045765301E+00 -4.526757353649E-01 -2.665277741858E-01 -1.338889878672E-02 2.288999222027E+00 3.123961096069E+00 -7.402454217008E-01 -7.800129886183E-02 -2.431205726058E-01 -1.652057881880E+00 -1.761027404697E-01 -5.936729996291E+00 3.466923050188E+00 -3.356343906490E+00 -7.608412855411E+00 -3.751437735072E+00 3.181215973492E+00 2.265974006128E+01
 -4.321738466133E+00 8.834140755522E-01 -4.855647796705E+00 1.578204928795E+00 4.705574313842E-01 -7.661184024587E-01 -5.351541037569E+00 9.363417164952E-01 -5.216434430980E+00 1.106154759260E-01 3.557037369726E-01 -2.585529501596E-01 8.974019680769E-01 -8.092642702651E-01 2.766184913587E-02 1.983205893144E-02 2.600056986580E-01 -4.211863465337E-01 -1.434931538261E+00 3.983469275522E-01 -1.627557609102E-01 -1.228270986370E+00 -2.212633201767E+00 1.403535896942E+00 1.594367748365E+00 -8.538971027003E-01 -3.737351069300E-01 6.305446553118E-01 4.644806576165E+00 -3.191089228246E+00 2.959973105711E+00 -1.706366819029E+00 -3.423980085186E+00 5.180111680529E+00 -3.711114945482E+00 1.829737011764E+01
 1.200206930805E+00 3.476089592852E-01 8.441839410791E-02 -3.557148318574E+00 -5.516543238761E-01 2.685997094869E+00 -1.682689672510E-01 1.370934903517E+00 1.186735415123E+00 -1.000231366722E+00 8.174063991932E-01 2.120954488221E+00 -4.315055351930E-02 -1.566412915609E+00 -7.122361977488E-01 -4.040180366317E+00 2.628506079458E+00 -4.023787197805E+00 -6.080951933731E+00 -1.169277563686E+00 2.422386412045E+00 -4.043551499266E+00 1.851294337925E+00 -2.874503239240E+00 2.912198801485E+00 9.864212364436E-01 1.431270123333E+00 -1.351962269539E+00 6.868389573743E-01 5.544575287126E-01 -1.063284179964E+00 -3.417559540410E-01 -7.777732713129E-01 2.060294864414E+00 -7.495429598933E-02 -1.715896178041E+00 1.804542354962E+01
 5.348695906060E-01 6.541112797738E-03 -1.508918844227E-01 9.262180681464E-01 -2.750866400585E+00 1.538023455100E+00 6.929531438092E-02 -7.204637181570E-01 -9.929513505337E-01 1.053573869209E+00 -1.482664511408E+00 1.374086210953E+00 7.278662188613E-01 4.148971017712E-01 -6.519181371653E-01 4.073168459727E-01 -2.231958477469E+00 1.432217561191E+00 -1.426195441364E+00 -3.945854836233E+00 3.009163582030E-01 -2.057760372652E-01 -2.979500064104E+00 1.460405432174E+00 -2.124757550560E+00 -4.901381762050E+00 2.228840378051E+00 3.933771453011E-01 5.033939351504E-01 -1.828776163395E+00 1.575210014361E+00 -1.131184061300E+00 1.413695652981E+00 -1.503229186468E+00 4.693650379050E-01 1.244655932505E+00 1.168805966669E+00 2.041626894784E+01
 1.842946769469E+00 5.397328454776E-01 -9.950308231987E-01 1.461132656894E+00 2.165788370298E+00 -6.632139220872E+00 7.119181189113E-01 -2.688949004439E+00 -1.383292471274E+00 2.674280459076E+00 1.486930148621E+00 -9.185253316754E+00 -1.857912128215E+00 -3.466166886224E-01 1.142761434068E-01 -2.185785803160E+00 1.542990754622E+00 -5.613508445567E+00 -2.140408420529E-01 4.094480010611E-01 -2.799218437032E+00 -5.174293597713E+00 -1.019613825035E+00 -6.167141595954E-01 -1.259131743615E+00 1.740451063242E+00 2.572534586784E-01 3.184088292620E+00 -1.050929540906E+00 -1.310273228623E+00 2.991490856435E-01 2.278501497983E-01 3.215762542591E-01 -2.774274578528E+00 -2.868752022928E-01 1.562442522549E+00 3.220502969530E+00 -2.155458392549E+00 2.778488694801E+01
 3.257650866556E+00 6.012838852737E-01 -2.471835087309E+00 2.696987998948E+00 7.641035721912E-02 -2.099900599515E+00 -1.683841669029E+00 -3.998686343270E+00 -2.443281033644E+00 -1.618377793153E+00 -3.674796451210E+00 7.173603199854E-01 -5.623265172457E-01 7.371060079637E-01 -5.186248973777E+00 -6.172323077635E-01 -1.403257181790E+00 1.719807757423E+00 -1.157116240052E+00 -1.306928724898E+00 3.840412627773E-01 -7.185724436735E+00 4.529801275483E-01 3.793399993204E+00 -6.471582972649E+00 7.846378129477E+00 -4.050209482224E+00 -3.074004621214E+00 -1.878123250002E-01 5.614732948046E+00 -7.942936613214E+00 -6.709458590312E-01 -8.558616706547E-01 -3.237122401596E+00 -1.350996102674E-01 -2.277609210692E-02 -3.523652769219E-01 -1.893734861760E+00 2.653935489597E+00 3.873348883271E+01
 1.685071408197E+00 1.027840951737E+00 4.100088114442E-01 -1.479036661411E+00 2.405890315699E-01 1.825528366619E+00 -2.468449114219E+00 -8.064885959312E+00 -6.785066693172E+00 -4.970995971071E+00 -9.698786590901E+00 2.389802381059E+00 1.185188721690E+00 -2.064698877551E-01 1.815391186821E+00 1.118466875925E+00 -4.334057747570E-01 -1.202671600850E+00 -1.049762874618E+00 3.277693306752E+00 -3.017881344364E+00 3.920807763342E+00 -9.351397350013E+00 5.033259946414E+00 2.531061875194E+00 -4.948068197813E+00 4.772855194006E-01 4.684682384071E+00 -2.207516413921E+00 -4.321937522249E+00 -1.321560893479E+00 1.863069190122E+00 -1.982108191149E-01 -7.124575610394E-01 -3.553814492219E+00 1.132759331203E+00 -3.213350947838E+00 -5.937817931314E+00 -2.588016581154E+00 6.117115421974E+00 4.024534820257E+01
 -1.204775092734E+00 -3.750926916335E-01 -1.628353527791E+00 6.415445516103E-01 2.521113443793E-01 8.024950351031E-01 8.915917751135E-01 -5.845556100946E+00 -1.194401683358E+00 -1.778486278415E+00 4.134232945499E+00 -2.028924060646E-01 -7.697445821367E+00 4.241955447679E+00 -1.378721684310E+01 -1.006701851148E+00 1.926764754508E+00 2.465286176553E+00 6.352307333300E+00 -2.583199078178E+00 -4.059608036009E+00 4.678700789364E+00 7.466793878733E+00 -5.499158507000E+00 -7.471384810198E+00 1.332610235619E+00 -9.165478822563E+00 7.856318847872E+00 -3.834365360781E+00 -3.428917263302E+00 -6.782341582790E-01 -2.054258049300E+00 -2.121303667883E+00 2.709315493834E+00 2.678023242965E+00 -4.357666825785E+00 -2.458219229738E+00 -4.754720829002E+00 -4.730800543469E+00 -2.119703296668E+00 4.163511943023E-01 4.994861124241E+01
 -1.138517696054E+00 1.747909918176E+00 -5.125466575191E-02 -2.347971204910E+00 -6.928623273663E-01 -1.759787160829E-04 -6.699088763198E+00 3.886845689315E+00 4.033951341606E+00 -1.746388944578E+00 8.185832213692E-01 5.686652595368E-01 -7.058463869588E-01 -9.857826374176E-01 8.224032638238E-01 1.197121473536E+00 -2.426411514695E-01 3.211660572382E-01 -3.249370904248E+00 1.667987257457E+00 -2.759870252243E+00 7.454450368723E-01 -2.423787496283E+00 -9.684609673244E-01 4.417499076690E+00 -2.095555097305E+00 1.654950609248E+00 -4.476422809616E-01 2.939322681152E-01 -8.570096625923E-01 1.588813646715E+00 -5.086129682085E-02 2.423596237173E-01 -4.706642915036E-01 9.446913288547E-02 7.802130239112E-01 7.125088168447E-01 -1.237866245103E+00 -8.560639493624E-01 -1.136213105814E+01 -1.319869763576E+00 -5.480542991596E-01 2.539373712114E+01
 1.467294366933E+00 1.256050999667E+00 -2.143575895857E+00 -1.125239532128E+00 1.588998359425E+00 -1.089150763966E+00 2.298630514617E+00 -5.061623862218E+00 -3.615805175762E+00 1.699657240738E+00 -6.813753763655E-01 -1.483931013969E+00 -1.254680993097E+00 -9.865225969082E-01 6.969754099335E-01 1.987736218386E+00 -7.925389322980E-01 1.121821699285E+00 -6.822570747101E-01 4.886007350592E-01 -2.946838082195E+00 -4.474456855776E+00 -1.027522528826E+01 9.158337072204E-01 -1.810674578816E+00 -1.780348002429E+00 4.307251785640E-01 3.255740232229E+00 4.969149446912E-01 4.172394332254E-01 -6.642166119639E-01 5.510678632754E-01 -2.414412333305E-01 -8.805761601415E-01 6.247534962371E-01 6.683973850360E-01 -1.242844568192E+00 7.573650393912E-01 1.814752997924E+00 6.970468368895E-01 1.424279892792E+00 -2.024151505544E+00 -1.836491136478E+00 1.873040247341E+01
 -6.110948674282E-01 -2.512961283100E-03 1.190762297904E+00 3.751386711620E-01 -1.234237224383E-01 2.465282800016E-02 4.159261335706E+00 -2.576418413731E+00 -2.337536481026E+00 8.448766747539E-01 -2.306645312010E+00 -1.413705203463E+00 1.428195408742E+00 2.804711510365E-01 -9.823499121255E-01 6.119979457059E-01 -4.181873238365E-02 -9.916838951944E-01 -3.081615477637E+00 -2.448537346983E+00 -9.028650251316E+00 -1.634400926204E+00 1.343295028339E+00 -1.055642536322E+00 -1.267268546403E+00 -3.241217738728E+00 4.892406639220E-01 -1.537046247201E+00 2.387030497414E+00 1.493060881360E+00 -5.657320681370E-01 1.267187977926E+00 -1.184083989441E+00 2.144213661802E-01 -1.076403521626E+00 1.203716422969E+00 -7.852043668539E-01 1.519750872734E+00 7.318429053199E-01 -5.701785788569E-01 5.058039399801E-01 -4.479899783431E-01 4.284579633148E+00 2.755354080462E+00 1.536111505034E+01
 -1.019199285200E+00 1.061583165427E-01 2.830484193173E-01 -1.187171847026E+00 -2.513011346455E+00 -1.108914086994E+00 4.549696731495E-01 7.846402632211E-01 9.639032533985E-01 5.554756973481E-01 -2.829315679764E-01 -8.205345391306E-01 1.118200381406E+00 3.651061033271E-01 7.421180183854E-01 3.254582393613E-01 -2.322847025562E-01 1.281118296396E-01 -1.140615645137E+00 8.316960150031E-01 1.444890764712E-01 -1.710840544232E+00 2.972957403772E-01 -8.719486688666E-01 -4.544201708957E+00 -1.467014323646E+00 7.733425607202E+00 -4.055267247949E-01 8.057014038591E-02 1.275951372433E+00 -8.710662313545E-01 -1.961101629129E-01 -6.092890128730E-01 -7.235456697820E-01 -1.246588461650E+00 7.123031135353E-01 1.075366529346E-01 9.112615684517E-01 9.178980830443E-01 1.669135831505E+00 -9.406797911766E-01 -2.147470618524E+00 -2.207947142856E-01 5.244399744487E-02 8.123080440404E-01 1.852148238512E+01
 -2.308765412190E+00 -5.080804787257E-01 1.542361862893E+00 -2.250286483871E+00 -9.279891328228E+00 -2.640547551273E-01 4.654213452564E-01 4.252947126514E-01 1.905216933458E+00 -8.594377823799E-01 1.339400930541E+00 -1.252651136286E-01 9.565749276878E-01 2.841127035947E-01 -9.737813975810E-02 -6.741583892351E-01 4.767191389042E-02 4.656544519265E-01 2.153455479810E+00 -6.250291364735E+00 3.013833997682E+00 5.438444440405E-01 1.367503591500E+00 1.044465262867E+00 -8.919439910522E-01 5.292356444073E-01 3.796575034969E+00 -1.747344326961E+00 -1.672890844606E+00 1.865909330166E+00 -5.715203958152E-01 -1.181281888290E+00 -1.488065591031E+00 8.677773988762E-01 6.620120219943E-01 -1.621078316863E+00 -4.226483149208E-01 4.626501989328E-01 -8.472365348610E-01 1.377958214420E+00 -1.205086450632E+00 -3.961142387174E-01 -1.461947691984E-01 -1.192098435335E+00 3.019148061707E-01 3.550733713897E+00 1.841580810677E+01
 6.247425815344E-01 4.814079035656E-01 -1.174914622677E+00 5.318723509162E-01 -1.063461613767E+00 -1.999984465884E+00 1.640820128176E+00 5.094162312765E-02 1.625919366294E-02 3.851125293959E-01 -2.001460463798E+00 -9.736014215210E-01 -3.194381944880E-01 1.847867779809E-01 7.238712011704E-01 -1.171618305804E+00 8.180443420397E-01 1.547049656271E-02 -8.004584788456E-01 5.790958490016E+00 -3.979139534715E+00 4.452996525924E-01 -1.434839444410E+00 7.734333956352E-02 4.367962176080E+00 2.311983217597E+00 -5.837584371279E+00 1.671251039586E-01 6.537405808292E-01 -1.191683117683E+00 4.894041503424E-01 6.209247414363E-02 1.585066274193E+00 -5.510012696019E-01 3.070447024924E-01 2.069649989275E-01 2.933463695129E-02 -6.420825631600E-02 1.378809136607E+00 -2.516637812444E+00 9.155591604009E-01 1.119458544585E-01 1.007843397312E+00 6.236662921084E-01 7.352361101216E-01 -4.737980178807E+00 -3.361090751801E+00 2.084694465098E+01
 -6.771988568595E+00 -2.882549681313E+00 2.046711071836E+00 -9.360022996967E-01 -8.025511586919E-01 -6.335779136951E-01 1.643622703188E+00 9.553641628453E-01 -2.965952898631E-01 9.086315998061E-02 -7.196248164848E-01 -6.597397772249E-01 1.478143509064E+00 -5.125821738808E-01 7.559620736220E-02 4.985318214952E-01 -6.504583869292E-01 3.854873692614E-02 1.976165308303E+00 5.954090884930E-01 -7.493421299415E-01 -9.846786740752E-02 6.025242656925E-01 1.583865699663E+00 7.573067622618E-02 2.335148955116E+00 -9.210211573938E-01 -1.713352657563E+00 -3.984507794404E-01 1.067148520697E+00 -4.789697776203E-01 -9.327317081847E-01 -1.178465502194E+00 -4.016732718905E-01 2.973860710322E-01 3.382819066708E-01 -5.507596959036E-01 -3.878110735172E-01 7.419601391669E-01 3.495694864757E-01 6.834350614196E-02 -1.893322207644E+00 -9.053409670983E-01 -2.678084848542E-01 6.357087763980E-01 -4.171703143708E+00 3.256428229796E+00 2.604611003849E+00 1.681177716431E+01
 -1.922847374226E+00 -5.501949155433E+00 1.486492244935E+00 9.862601120535E-01 1.707274540397E-02 -7.381736150786E-01 -1.987420093376E-01 -4.649929398106E-01 1.597727428064E-01 -6.414146748489E-01 -1.920940501570E+00 -6.359557004863E-01 1.053627370980E+00 1.101954919203E-01 1.174025023178E+00 1.235909166061E-01 -1.000586615389E+00 1.608849573234E+00 1.007352011340E+00 -3.296307495734E+00 5.021680717124E-01 -3.052785649266E-01 2.277191834166E+00 -1.699840452459E+00 -1.501272099870E+00 -6.714321763720E+00 2.708796735475E+00 -7.128285225444E-01 2.528450123372E+00 8.124837774701E-01 -7.167114236688E-01 1.831532978489E+00 -2.756937960176E+00 1.929557713430E+00 -5.385175886847E+00 3.822594677440E+00 1.167452702513E+00 -1.572694177317E-01 2.261221493747E-01 -4.853249198609E+00 1.761151079585E+00 -1.342630316359E+00 1.474611378976E+00 5.833166152451E-01 -3.359997022601E-01 2.727304402606E+00 -7.300609797369E-01 -1.919731540591E+00 -7.206076651114E-01 2.089490124743E+01
 2.606617128711E+00 1.600312121452E+00 -2.412741624377E+00 -2.103988798783E+00 -2.179356955987E-01 1.294724711365E+00 1.605227269463E-02 -2.050641632916E-01 3.107541470785E-01 1.105798201744E+00 1.698404088538E-01 -2.324416977674E-01 4.891252008626E-01 -8.155197555689E-01 -9.056042409753E-02 2.537757942205E+00 -1.964529336974E-01 1.132880686772E+00 -1.260052324018E+00 -2.521473688523E-01 3.888703275209E-01 -9.986675791124E-01 1.314098779943E+00 -1.393870594822E-01 2.440288244191E+00 2.040970520807E+00 -7.020386256081E-01 -3.203597952203E-01 -1.605172139309E-01 -3.160075565698E+00 -1.571950676442E+00 1.754819597683E+00 1.999870210002E-01 -9.146752649126E-01 1.302427631965E+00 2.248276145925E+00 4.477954827266E-01 -9.015848068893E-02 -7.425085090333E-02 1.559466059136E+00 -1.546837433292E-01 1.474425720862E-01 -6.143417995069E-01 -2.185576623311E-01 -5.629745565473E-01 8.468053312458E-01 -1.575855736197E+00 -3.994356012571E-01 7.590193896834E-01 -5.457424698190E+00 8.286928074405E+00
 -3.691691180454E+00 -1.956620013384E-01 1.765480630107E+00 -4.739791043319E+00 2.166503828525E+00 1.017824045734E+00 -1.429732888973E+00 -1.416455082446E+00 2.061093534483E+00 -2.147439279610E+00 1.541558188553E+00 3.194333676229E-01 -1.879248630236E+00 1.229626850290E+00 -1.629270257080E-01 -4.563404089381E-01 -1.770175498917E-01 -9.483927218549E-02 -1.002177563895E+00 1.025977097384E+00 -3.734435139258E+00 1.758094254256E+00 1.519746767811E+00 -5.486772359180E-01 6.592149413688E-02 -2.439603063216E+00 -2.630497637470E+00 2.077627546312E+00 -1.076035262071E+00 -1.210109738879E+00 2.941158524419E+00 -2.015745782629E+00 2.279463465153E+00 2.243776340601E+00 2.390247533802E+00 -1.570099274167E+00 -4.147671555984E-01 -1.527607807698E-01 -1.922711524384E+00 -1.378679150103E+00 -6.342273847774E-01 4.016448066906E+00 2.095280864803E-01 -4.817388190758E-01 6.195829634979E-01 -5.897486163525E+00 -1.610310323831E+00 -1.950423129512E+00 -4.835351438438E-01 -7.499203114919E-01 -1.224014392901E-01 1.449770090755E+01
 6.155197208498E-01 -1.620345668304E+00 -9.812649766638E-01 2.549736267039E+00 -4.662587148882E+00 7.392505304949E-01 1.187110305361E+00 -9.551218616959E-01 4.789211443787E-01 -1.149535003723E+00 1.082241716557E+00 -7.376134208439E-01 -1.990963892996E-01 7.153115229131E-01 9.688365666055E-01 -2.003051641868E+00 -3.269514723082E+00 1.619015596496E-01 -1.124331744178E+00 3.756608447281E-01 7.973920432193E-01 1.569917041266E+00 2.411101561889E-01 2.906187274058E-01 1.113310933355E+00 -4.592074472744E+00 4.927636486604E+00 2.296240681801E-01 -1.695239418251E+00 5.589386230656E-02 1.071294210220E+00 -1.485809494895E+00 2.089731205945E+00 -1.080129460856E-01 2.804272517823E+00 -4.521147684366E+00 -5.505543082920E-01 1.559957943796E+00 -2.161066058641E-01 3.624520366016E-01 1.288545992340E+00 7.002507154777E-01 -1.242612586224E-01 -8.146954418612E-02 -7.213287906513E-01 -1.357481675365E+00 -1.362340558083E+00 -9.084377570775E-01 -1.696722736542E+00 -2.425960510553E+00 -1.964056364011E-01 3.187361046683E-01 1.441774058606E+01
 8.668906043262E-01 -7.838720167002E-01 -3.505922061018E+00 -6.870000978501E-01 5.180147327904E-01 -3.419680989732E-01 4.097549123360E-01 5.521897494247E-01 -7.238339553145E-01 2.402140332356E-01 5.693156126392E-01 5.099436083776E-02 9.666559479350E-01 -2.703428559987E-01 -1.751909010758E+00 -3.217678645608E-01 1.457385383490E+00 -2.319456282329E+00 -2.879928212008E-01 -3.545049019569E-01 8.475997331341E-01 2.183002523418E-01 -1.551442233169E+00 1.317401308749E+00 -1.202938968808E+00 2.293804761157E+00 -1.177395668728E+01 -1.097348161748E+00 -7.188235770225E-01 2.020814044443E+00 -9.492163978693E-01 -7.760106842764E-01 -1.141974383657E+00 -7.695163907097E-01 2.289258305375E+00 -8.184848689585E-01 7.671687581708E-01 -1.070531168680E+00 1.266505782418E+00 3.425245261633E+00 -2.524984184804E-01 -1.578033209132E+00 -2.511370633558E+00 4.101280167260E-01 4.752203734298E-01 -2.696691928994E+00 -1.165823439150E+00 -1.173472121762E+00 -6.245372032175E-01 4.969386824431E-01 -1.617859464278E+00 3.158343091029E+00 -1.952083660458E+00 1.869517118448E+01