#BIOSYM hessian 1
@Type: Hessian Update
@Units
 distance: 	A
 energy: 	Kcal/Mol
#header
@natom 19

#label
L1      L2      L3      L4      L5      L6      L7      L8      L9      L10     L11     L12     L13     L14     L15     L16     L17     L18     L19

#element
Li Li Li Li Li Li Li Li Li Li Li Li Li Li Li Li Li Li Li

#matrix
57
 3.611698751273E+01
 1.658099057412E+00 1.582156392002E+01
 -3.549498479092E+00 1.101580946851E+00 9.246019162092E+00
 -2.205477232954E+00 -3.394255923246E+00 -3.538748598340E-01 2.288160597803E+01
 -2.019429312459E+00 -7.446233138151E+00 -2.315449170791E+00 5.826221777109E-01 2.461459326444E+01
 -1.382171509904E-01 -1.226417716078E+00 -8.211655110695E-01 2.418693760980E+00 -3.183550216833E+00 2.462262351452E+01
 3.285867739151E-01 -4.887206122322E-01 6.279474537967E-01 -4.780708673636E+00 -3.912473405520E+00 4.666986527826E+00 2.743981336863E+01
 -4.109264050850E-01 -2.493037598737E-02 -4.399545035764E-01 -3.816191036776E+00 -3.719862890604E+00 3.863492568666E+00 -6.671874941349E-01 1.930080721532E+01
 1.672769702091E-02 -4.403625871719E-01 -8.255620644449E-01 1.908830980634E+00 3.640398747674E+00 -2.583667378760E+00 -2.901458728982E+00 -1.847127477154E+00 2.558758553927E+01
 3.805077067572E-01 1.291069106317E+00 2.879699616486E-01 -4.837517387132E-01 -2.215290567912E+00 1.213688516089E+00 -3.007473831301E-01 9.517033449732E-01 1.076908345355E+00 3.035457664476E+01
 -4.939938116405E-01 -1.179033620512E+00 -8.527302032389E-01 -7.090514542425E-02 6.358320604646E-01 6.656077599096E-01 1.666694342331E+00 1.904954490045E-01 2.067722588061E-01 -3.120557365526E+00 2.935796116479E+01
 1.686156392235E+00 -1.173933614924E+00 -1.206786336198E+00 1.602592199476E+00 1.672695032699E+00 -8.501280166098E-01 -1.453997797188E+00 -1.053338169165E+00 -5.048878071586E-01 -1.418249007024E+00 -2.623403807770E+00 3.168113460135E+01
 -1.616286141500E+00 5.909417990649E-01 -8.111078355982E-02 -6.584210126136E-01 -5.929493342611E-01 1.673211993255E+00 -1.457412047730E-01 -1.288876648106E-02 -2.078210328943E+00 -3.231057308392E+00 -2.892342828966E+00 -3.257714960362E+00 2.365168071042E+01
 -9.085013380107E-01 1.968428377489E-01 1.062342402722E+00 6.474274113287E-02 3.938073188165E-01 -2.962097200347E-01 -2.286783043756E-01 -2.141724674827E-01 -1.594645617088E+00 -2.994302962391E+00 -4.164858559625E+00 -4.594530245308E+00 -7.719566662068E-01 2.330427457336E+01
 -2.095202418908E-01 7.864621514040E-02 -3.955597002649E-01 -7.854193835922E-01 4.692767464710E-01 -1.109238287892E+00 -1.051357815597E+00 4.800447856422E-01 9.501533632494E-02 -2.201732735974E+00 -2.276510854962E+00 -3.366977973778E+00 -1.580475487622E+00 -1.418289941782E-01 2.050039301898E+01
 -2.635767555074E+01 -3.390760596427E+00 -1.912373434062E+00 -1.882465108275E+00 2.753374012733E+00 -1.049922121089E+00 -6.384980209509E-01 6.407779100363E-02 1.938138539232E+00 7.064244602299E-01 1.416866581155E+00 1.348259761841E+00 -9.207035162626E+00 6.077135827871E+00 5.248926489332E+00 5.683262743637E+01
 -3.194201078826E-01 -1.870915982100E-01 -1.185312229278E-02 4.892048065400E+00 -4.659562705368E+00 -2.672424140721E+00 -1.230058002146E+00 7.929594071923E-01 -1.556383264613E+00 4.053391237909E-01 -1.159004752275E+00 7.380846208052E-01 2.356267761593E+00 -2.661964121415E+00 -2.559332216341E+00 1.138453273320E+01 6.068928347985E+01
 -1.166329469872E+00 -9.778636176241E-01 6.042049113076E-01 3.469990126422E+00 -9.053064998592E-01 5.907429474791E-01 -4.456192823042E-01 -1.195474344522E+00 -1.478921452900E+00 2.013005065150E-01 -3.643190567847E-03 1.451597606031E+00 4.191352441265E+00 -2.148425536092E+00 -2.497605058464E-01 3.314114291109E+00 4.631111168953E+00 4.471067339511E+01
 -4.603973404758E-01 4.710947898399E-01 -5.465823453759E-01 -1.730126198328E+00 3.637090533091E+00 -3.960521534944E+00 1.670577408879E-01 -3.270025283617E-02 9.016020393385E-01 1.900880495895E-01 1.006264588085E+00 1.657526911216E+00 -7.186036108099E-01 9.682413844652E-01 1.338275915277E+00 1.020934542980E-01 2.716424622935E+00 2.532109072867E+00 2.164083398685E+01
 -5.670205370845E-02 -8.362471399407E-01 -9.684153709742E-02 2.366551780000E+00 -3.487243561268E+00 5.290492662528E+00 -3.961598746397E-01 1.616187348919E+00 1.633676159508E-01 -3.534886647149E-01 6.694511966433E-01 -1.695145452710E-01 8.794109189534E-01 7.870664645586E-01 -5.916273536291E-01 3.402658925539E-01 -1.254042761463E+00 8.853410002392E-02 -4.186682003446E+00 1.141522487159E+01
 4.035728665859E-01 3.060937933152E-01 -1.237933997535E-02 -1.560871758752E+00 4.665015831511E+00 -6.845087490192E+00 -8.128093962037E-01 -6.788537614879E-01 6.138343449069E-01 -3.899050881732E-01 3.584599799438E-01 -9.004990759774E-01 -8.964368977608E-01 1.601188230503E-01 -8.612514001745E-01 3.355373784373E+00 -3.425597875781E+00 -9.114661835523E+00 -1.041924221191E+01 -5.084094939446E+00 2.561910655982E+01
 -1.200482192705E-01 -5.837475138018E-01 -4.430600410237E-01 -1.791964581172E+00 -3.020441711598E+00 -1.889023836719E+00 -1.853415058673E+00 3.424207051708E-01 1.911209633212E+00 1.829431588797E-01 6.493034703641E-01 7.761878353995E-01 3.197942309930E-01 -1.591036235779E-01 5.737805618711E-01 3.600604094631E-02 -2.488900907432E+00 -1.370978326901E+00 -1.285737751579E+00 6.739320309882E-01 -2.784958560470E-01 1.403223474999E+01
 6.117314863472E-01 -2.892675539270E-01 -1.430053527569E+00 -1.225326293120E+00 -3.065646182331E+00 -2.527292924026E+00 -1.940719979249E+00 -8.623717211612E-01 2.078171589003E+00 -8.516573894322E-01 -6.921146498021E-01 1.292362534255E+00 -2.161786429899E-01 -1.665301158621E-01 1.118004965121E+00 7.516177350699E-01 1.577763450935E+00 -2.713265914224E-01 1.233986488855E+00 2.687420144407E-01 -1.435318938230E+00 -6.888368338394E+00 2.768577488374E+01
 1.390471154692E+00 2.305993279074E-01 -1.437946489875E-01 2.743063315699E-01 -2.558423040541E+00 -3.264872592020E+00 7.650652769991E-01 -1.712268494841E+00 -7.032838798175E+00 -9.294162029423E-01 6.415680021537E-01 1.164659811467E+00 6.981213648781E-01 1.921063838650E+00 -9.733618506403E-02 -1.881519841963E+00 1.769108049299E+00 1.002152348297E+00 -1.156239719637E+00 -5.162117904353E-02 -7.662763063742E-01 -2.498614368358E+00 1.314671720207E+01 2.213535735779E+01
 4.864681573180E-02 -1.235345450750E+00 -6.373077350595E-01 -7.227715338063E-02 -7.030694539185E-01 8.200057977842E-01 -1.171161913219E+01 1.200498259714E+00 -3.694113392433E+00 -1.623500181698E+00 4.018111294423E+00 -5.762769453173E-01 -1.852077827826E-03 1.518416763731E+00 2.649796904734E-01 -1.407047380491E+00 1.682185386852E+00 1.265396113984E+00 3.648311202977E-01 -1.139719524604E+00 -1.031248260684E-01 -5.622032237002E-01 2.070209632075E-01 -1.331060296213E+00 2.928816370080E+01
 1.492154641099E+00 -6.568128221180E-01 -2.762805748404E-01 7.681009447357E-01 -1.287700579143E+00 1.645946119968E+00 2.302759499549E+00 8.859897463569E-01 5.717116583151E-01 2.855410463000E+00 -1.201268288958E+01 1.984583757041E+00 -7.229670299015E-01 -5.285248276695E-02 6.431909423501E-01 -5.427297482979E-01 1.869825071298E+00 2.928586923299E-01 -1.478075725622E+00 -5.871932636812E-01 4.257749223281E-01 2.737091266021E-01 -8.315167476784E-01 -6.697985684976E-01 7.168642685466E+00 2.736141590061E+01
 2.544359262267E-01 -8.579729869035E-01 -1.379602914581E+00 5.366511502670E-01 1.259550814365E+00 -7.966951623560E-02 -3.646538775418E+00 8.278685852179E-01 3.376682658219E-01 -2.031909383241E+00 2.468299600055E+00 1.609072460551E-01 -6.717710949529E-01 -4.505839921119E-01 7.516759493888E-01 1.176524929292E+00 7.415204837539E-01 -2.738283496130E-01 1.458512171813E+00 1.661907325331E+00 2.823037148672E-01 5.616716421643E-01 4.169607360278E-01 -1.273942841648E+00 1.909164352379E+00 -1.841276696888E+00 8.648789538250E+00
 5.284693407149E-01 7.350845221448E-02 -1.266191388123E+00 -7.690137239349E-01 6.016852855092E-01 -3.628677675745E-01 -7.960234150972E-01 7.045340918836E-01 -1.139129018420E+00 -3.692846336512E-01 6.835482072354E-02 2.338229462040E+00 3.783204327872E-02 -2.380737090302E-01 1.086156329793E-01 -2.254816686280E-01 -7.742826894160E-01 -9.046007698395E-01 9.726976999993E-01 -8.016789733208E-02 -2.291517517428E-01 -3.515425814343E+00 1.779623648796E+00 -9.170131774071E-01 -8.476749181597E-01 -6.752370304217E-01 -3.733308983241E-01 1.589969119463E+01
 8.861082854650E-02 4.376841424779E-01 -7.297130655585E-01 3.722666010006E-01 -6.579897045094E-02 1.846182166686E+00 6.295591903760E-02 -1.853514651942E-01 8.435833492056E-01 7.650225518056E-01 -2.916247453130E+00 -1.871806762307E+00 -2.096841304087E-01 7.027593091483E-01 5.617580026776E-01 -1.087037362038E+00 5.722674210929E-01 -1.299749862895E+00 -2.320771358496E-01 -5.533858108736E-01 -7.557720115546E-01 2.654856248820E+00 -2.978575963110E+00 1.212373327646E+00 1.354222421264E-01 -1.741826820253E-01 -7.175063957817E-01 -8.554730869968E-01 1.229048148901E+01
 -7.118108982582E-01 8.553474916576E-01 -4.261492007433E-01 -3.838990591974E-01 -6.615750036877E-01 2.346003341618E+00 -8.026282191143E-01 -2.885195700436E-02 -1.939479879774E-02 1.712598979801E+00 -3.761069903568E+00 -6.979500565757E+00 6.792446712073E-01 1.063021041114E+00 -5.311831815431E-01 -4.236865677214E-01 -3.397125374813E-01 -1.278935672978E+00 -1.721633906476E-01 1.021024858745E+00 -8.623613693134E-01 -3.298235841823E-01 -1.035601843069E-01 -1.027939043287E+00 -7.231938680868E-01 -1.648500701248E+00 -4.295511039705E-01 1.276439523354E+01 6.224222785687E+00 3.177876180289E+01
 8.686707436737E-01 2.697254230152E-01 -8.591675384085E-02 -5.266240982426E-02 2.598575302191E-01 -2.114597410704E+00 -4.426345234345E-01 -3.843869798601E-01 -8.940852678302E-01 -7.847989552906E+00 -5.749310166764E+00 3.984028162863E+00 9.661790430900E-01 -1.017520949483E+00 1.935167723552E-01 -8.276951075035E+00 1.936033895329E+00 -4.647653655650E+00 -9.245888931952E+00 4.567292848715E+00 3.003676953272E+00 8.809453797705E-02 1.248002764670E-01 8.998442137624E-01 4.469078021945E-01 -2.936738471751E-01 7.872511056230E-01 -2.044247260163E+00 5.584402318002E-02 -4.983044387203E-01 2.889394716464E+01
 8.579112497321E-01 -2.004620161557E-01 5.423989691583E-01 -6.637584690349E-01 -1.229495244204E+00 8.410633317204E-01 6.897697854421E-01 -1.458331604853E+00 -2.842478537310E-01 -3.542401290948E+00 -5.469857426144E+00 3.742411231954E+00 -3.352276676244E-01 -1.345409250305E+00 -1.308054570093E+00 1.141392873880E+00 -1.742259754845E+00 1.553518716103E+00 3.289905110679E+00 -2.397843391483E+00 -1.264920641452E+00 7.905234453295E-01 7.378226996557E-01 7.500544481715E-01 7.117990441947E-01 1.209844714061E+00 4.732686629195E-01 -1.790008657096E+00 -5.881209511035E+00 -2.913996801386E+00 2.394568878590E+00 2.624801270283E+01
 5.467362865572E-01 6.475407436479E-01 3.575670645080E-01 -2.643971287395E-01 -7.350969355322E-01 -4.366638175756E-01 8.880540537594E-01 -5.962953959169E-01 -1.424195588856E-01 5.544768668246E+00 3.108228940451E+00 -3.969459379891E+00 1.299039147090E+00 -1.642867073489E+00 -6.779024646890E+00 -7.369236530761E+00 1.555139689092E+00 -8.735829039640E+00 5.589306137861E+00 -2.188998896962E+00 -4.422865534851E-01 2.579138994871E-01 -1.269568258436E+00 -2.029580149558E-01 9.042672448712E-01 -1.871803402564E-01 -3.536323921177E-01 -1.043903939126E+00 -3.239706752758E+00 -1.383770962062E+00 -7.210625087750E-01 3.116977599738E-01 2.227379125178E+01
 -2.977885772644E+00 3.781021455772E+00 -2.061072895142E+00 3.609520116369E-01 1.837998900984E+00 -1.337517065511E-01 -7.388793003952E-01 6.500086825154E-01 4.419218307863E-01 6.290592157338E-01 -2.647017711952E-01 -1.713028292180E-01 -1.994130424943E+00 -1.342451711523E+00 1.294621386396E+00 1.151576289939E+00 -4.344272799004E+00 9.417841073167E-01 6.381977464362E-02 3.130473583995E-01 8.248985656252E-01 -3.570459694166E-01 2.209161995036E-01 -8.819748496332E-01 -5.765181662639E-01 -2.798018584285E-01 5.648541902621E-01 1.242676483391E-01 -4.133499067077E-01 8.121590291260E-01 -4.411214499280E+00 -4.609766806132E+00 -1.132126796442E+00 1.267329122643E+01
 7.637717845900E-01 -3.110935177838E+00 7.394895056348E-01 1.317871767872E+00 4.921262719659E-01 -7.743431533882E-01 -1.107636781563E+00 -8.937918724320E-02 -7.777148010166E-02 -2.282712665750E-01 -2.188127556395E-01 9.885934767768E-01 1.842001982883E-01 -9.631719081277E-01 -3.435834538701E-01 -9.810058121505E-01 -2.300071348685E+01 8.571342362517E+00 -8.013643674611E-01 -4.088837918686E-01 1.516451388705E+00 8.988728330732E-01 -1.689594388530E+00 2.674041450500E-02 2.246168208787E-01 -2.771126495897E-01 1.251996822085E-01 -4.535125965018E-01 -1.721869251359E+00 -1.118763256669E+00 -2.616742081371E+00 -2.374836629696E+00 -8.194020017027E-01 3.988282721417E+00 3.369129580600E+01
 -8.507368196824E-01 8.115894197852E-01 -9.763574211463E-01 3.268214266775E-01 -1.098078018913E-01 1.208136068900E+00 3.435399892145E-01 7.257174668770E-02 -1.720795896454E-01 -4.113706061587E-01 1.317793163755E+00 -7.669455008366E-01 9.367271575981E-01 1.481908296461E+00 -2.115030903239E+00 1.483509595920E-01 4.909468813003E+00 -2.710677959060E+00 -1.032133370797E+00 6.606550190582E-01 -1.109595672642E+00 -9.285437184789E-01 4.572902867164E-01 2.775189352432E-01 -1.574106606920E+00 -2.124617901995E+00 -7.871238382654E-01 5.924710416297E-02 -4.368637825369E-01 9.291514635280E-01 -2.314801147284E+00 -2.939585851045E+00 -1.541369041940E+00 2.259870587143E+00 -8.706321574892E+00 1.708039288487E+01
 -1.379604248055E+00 -1.030097828778E+00 1.669943668364E+00 -1.224888976267E-02 -2.101605076768E-01 1.831908218209E+00 -6.314571540793E-01 -2.945163365839E+00 -2.146183123718E+00 -1.228422660653E+00 8.683966914451E-01 -8.135338208046E-01 1.165771907229E+00 -5.311774536419E-01 -4.211880661522E-01 -8.862341100076E-01 2.220032381661E+00 -1.551277861951E+00 -3.275296114823E-01 3.684960346716E-01 -2.136835330795E-01 -5.834154019964E-01 2.390978706546E-01 2.056237042256E-01 1.022076524398E-01 -1.015643675767E-01 -1.366649008221E+00 -5.588784279929E-01 2.527795624922E-01 1.616194640346E+00 -1.262444773798E+00 -1.084870577685E+00 -1.029602446211E+00 -2.277850817634E-02 6.334832415176E-01 6.580654679816E-01 2.724180468287E+01
 -3.719176976917E-01 -1.010887221186E+00 3.537354760587E-01 1.488644336227E+00 -1.495479623327E+00 -1.346125504989E+00 -1.852629330488E+00 -4.323383595845E+00 -3.238327131322E+00 -3.427178029554E-01 -1.198924299395E+00 5.322407386802E-01 8.940566297994E-01 2.024385872224E-01 8.603249958219E-01 5.815734240941E-01 -3.190777086557E+00 5.965202131598E+00 1.253141905319E-01 7.292275905234E-01 -5.697108426861E-02 -9.285322434371E-01 3.086408696285E-01 5.849473086271E-01 -5.084803819195E-01 8.835200508530E-01 -1.012805058748E+00 7.874957493294E-02 -6.992109622985E-01 2.777638084039E-01 1.056013296772E+00 4.903228798240E-01 -1.863465132625E-02 1.197300227627E+00 -8.330039041613E-01 3.410347479516E-01 -2.344212409289E+00 2.303429223374E+01
 -2.932189482037E-02 7.323186727750E-01 -1.517778720268E+00 5.568418768880E-01 -1.768410580931E+00 -9.966822616473E+00 -2.858020585573E+00 -2.598292938811E+00 -2.553382084748E+00 -1.749349146608E+00 -8.702958684084E-01 1.244310956713E+00 -1.344740609059E+00 -6.761734470726E-01 -2.164952438986E-01 -9.937847791243E-01 8.625683744465E+00 -7.548328885300E+00 -2.472880439246E-02 -2.067708458924E-01 -9.944710116922E-01 1.991503102541E-01 6.548214879445E-01 -2.703314440303E-01 1.176931599819E+00 7.501078197777E-01 3.143555603354E-01 1.030111862225E+00 -1.145809155893E-01 -2.376387495814E-01 1.211876375008E+00 9.015270803407E-01 -2.270446238105E-01 -4.668440538207E-01 1.509499737842E-01 -4.813455261034E-01 2.908793308710E+00 -2.688721524249E-01 2.732300386718E+01
 8.311361583945E-01 -2.349699973339E-01 3.423795573276E-01 2.106326262455E-01 -1.145483281300E+00 7.495308115420E-02 -3.493691930015E+00 1.422431933368E-01 5.058146327908E+00 8.902908304267E-01 -3.509129753623E-01 -1.072582356421E-01 2.032451955108E-01 -1.351079109968E-03 4.088358512537E-01 -1.082584265895E+00 8.006784615336E-01 2.813925786913E-01 -1.175692655995E+00 -5.128351980429E-01 -1.465561174391E-01 9.255450545044E-01 7.657785694564E-02 -6.128192982008E-01 -2.381942073584E-01 5.910068171562E-01 4.106291001232E-01 -1.620256423794E-01 7.412836390762E-01 -4.590861654807E-01 -3.570749430529E-01 5.166478401513E-01 -4.374413232994E-01 -6.950112470992E-02 -5.232921492241E-01 7.842848440554E-02 -1.320630687285E+00 -1.156035795922E-01 1.170260754883E+00 1.069464440626E+01
 -2.278829386088E-01 -6.336159718556E-01 -1.638307515255E-01 1.746323628435E-01 7.310064966454E-01 9.816664827958E-01 -8.288410968728E-01 -8.575266335429E-01 3.262792977104E-01 -2.736927570393E-01 1.100568491647E+00 -8.359240346291E-02 1.782504959598E-01 -5.639636238807E-01 6.161540487873E-01 4.969954424936E-02 -1.177923011915E+00 -1.417038181425E-01 -9.985274855337E-01 9.071475683916E-02 -1.568485134681E+00 2.778491125042E-01 -2.873760918213E-01 -1.633591378262E+00 -4.754923576634E-02 -4.079593928320E-01 -3.287086790704E-01 5.966302032854E-01 1.810979386288E-01 2.417914647245E-01 2.855519003524E-01 5.929899449281E-01 -4.472111543927E-01 -3.857107982328E-01 2.369694058279E-01 1.539669702935E+00 -3.220641388533E-01 -3.778780110101E-01 1.833572701511E-01 -8.623554361568E-01 3.203943547312E+01
 -2.055619080902E-01 1.498503890557E-01 1.001885513086E+00 1.043237125783E+00 -6.896063199835E-01 -9.849084898392E-01 3.804943533835E+00 -1.286305872598E+00 -9.019020601141E+00 -5.323146217161E-01 -9.240463764910E-01 9.137872532815E-01 1.609913806266E-01 1.307829246982E+00 3.592033140094E-01 -1.259949592123E-01 1.605844555866E+00 8.906251424117E-01 -3.123199729695E-01 4.154795895172E-01 -6.616168025062E-01 -9.071437063830E-02 -1.253599202606E+00 -6.353136124216E-01 2.199975457700E+00 7.100460779339E-01 -2.230110167361E-02 -1.793975022797E-01 3.432540718216E-01 -6.822548443714E-01 2.159697884741E+00 -2.222459564929E-01 -8.352823367480E-01 -9.944281165917E-01 -1.215668760760E+00 -1.103889644814E+00 2.804905450945E-01 -4.862628776758E-01 -2.255196582236E+00 -4.949975565884E+00 -1.337353127789E+01 2.723694061496E+01
 -1.937974852542E+00 -6.677018253732E-01 -1.839566904789E-01 3.122260086177E-01 8.339855955198E-01 2.133564941381E-01 9.406442455908E-01 7.890713627399E-02 -1.038606838308E+00 7.606408474581E-01 4.291095331947E-02 9.898624166626E-01 -1.987646433015E+00 -2.790926263709E-01 -4.480910389556E-01 1.747985163736E+00 -7.550901086741E-01 1.476397040182E-01 -1.569410000641E+00 2.164090656366E-01 -2.013910801719E-01 -5.464215995945E-01 2.887189826636E-01 -4.009329224750E-01 -5.857534331335E-01 -8.316551032582E-01 -1.124524986849E+00 5.791456285344E-01 -2.472851032136E-01 2.947972622296E-01 2.087095098492E-01 -5.856644461555E-01 -4.619151289472E-01 6.108015125383E-01 -6.460567521551E-01 9.982810382987E-01 -1.374964895009E+00 9.471830659229E-01 7.898384804477E-01 -3.824441875281E+00 2.000363861787E+00 1.365727659403E+00 2.961911981051E+01
 -1.551056413219E-01 -7.184818263940E-01 5.119622649177E-01 -4.188434287767E-02 -4.515647333115E-01 -1.064007965665E+00 -5.522048464868E-01 -4.877474833015E-02 -3.919215888903E-01 -4.428662022586E-01 -1.399800376752E+00 1.077684174409E+00 -4.974725586145E-01 -1.808152747289E+00 6.032842795548E-01 -1.752125458570E-01 -1.165083793951E-01 8.078849286711E-01 8.258306530628E-02 -1.098988653185E+00 -1.206820332913E-01 9.995958880619E-01 3.570485309636E-01 -2.132320531064E-01 2.863543750337E-01 -6.586661671584E-01 2.233846941208E-01 -7.042137696033E-01 1.928515126720E-01 -4.476802896077E-01 -1.078353482620E+00 -3.622868338778E-01 1.572802739099E-02 -2.029275952072E-01 5.108196560904E-01 8.349597997967E-01 6.178589298649E-01 6.477852485032E-02 6.631636289755E-01 3.507267107047E+00 -3.330359419024E+00 8.584441479035E-01 -5.282705048959E-01 8.025339096366E+00
 -5.939917229189E-01 4.924533565532E-01 6.718197103252E-02 -2.026505432648E+00 -8.970949830276E-01 3.039827103101E-02 7.714722717302E-01 9.929707339094E-01 1.221385125510E+00 2.872440806780E+00 5.485538737839E-01 -1.074803817875E+01 1.878950059792E+00 6.096007493134E-01 -1.640190868724E+00 -9.387218702130E-01 -7.859994391162E-01 -6.988895040064E-01 4.263268444100E-01 -7.802120429760E-01 -3.239157937134E-02 9.690168280128E-01 3.679624026228E-02 -1.962625613924E-01 -5.084989963871E-01 2.348024634520E-01 -8.976832421074E-01 -4.450549537111E-03 4.230219931210E-01 -3.620678077021E-01 -1.064792890360E+00 -7.641795664347E-02 8.628783839526E-01 2.174472909305E-01 -7.026230218418E-02 1.510738225996E+00 -8.410777030770E-01 -8.925331115384E-01 -8.614419485343E-01 -1.763599777424E+00 1.327952032530E+00 -2.010550493375E+00 -6.463317495049E+00 -1.122506048556E+00 2.031283971647E+01
 3.292607952524E-01 7.454546504373E-01 2.245101447227E+00 7.982310262213E-01 -5.446746564976E-01 -7.506969376263E-01 -3.402063312184E+00 3.903214379118E+00 1.749112573258E+00 -6.492573297797E+00 2.326993347501E+00 -7.860633194086E+00 5.709799092746E-01 1.758976621214E+00 7.924848676666E-01 -1.040875786898E+01 -7.734752040639E+00 3.663950527115E+00 -7.848090485369E-01 -1.469179949566E-01 2.421790427131E-01 5.027019078121E-01 -6.565169770396E-01 1.820913049843E-01 -2.297949317717E+00 -4.988065750229E+00 -1.935230282782E+00 1.499014559696E-01 5.350739712471E-01 -1.096894268274E+00 1.116290203339E+00 2.744254741854E-01 5.764986428373E-01 -1.767841299928E+00 5.023115765714E-01 1.041219176244E-01 -1.442530978235E+01 -1.890799463180E+00 -6.333510773461E+00 -7.240517890754E-01 -4.596201345405E-01 -1.464115864643E+00 -1.710796242174E+01 2.438919009238E+00 1.192762146032E+01 5.072589528659E+01
 1.795608724127E-01 7.517021952018E-02 5.373474980085E-01 -7.900729586536E-01 -2.665621217513E-01 -1.038753086572E+00 4.162549973102E+00 -6.693322091956E+00 -1.989258738949E-01 2.216113401056E+00 -2.960282179770E+00 4.313369580970E+00 3.142500866742E+00 -1.077912515929E+01 1.057215903310E+00 -8.452686625667E+00 -5.283339886905E+00 5.954252238822E+00 -8.692935595133E-02 -4.005197269610E-01 -2.568275232163E-01 1.486767503724E+00 -3.147514168917E-01 -1.088316262109E+00 -3.358393324972E+00 -5.207052775481E+00 -3.472318390030E+00 1.074235524736E+00 -4.619350235004E-01 -2.144155329584E+00 1.157586993256E+00 1.516979619745E+00 -9.678210208096E-01 -1.110328437490E+00 -4.785025733476E-01 -1.544140995658E+00 4.045218232875E-01 -1.004115400064E+00 -1.107381940147E+00 -4.185896534919E-01 -1.921959244054E+01 1.491148716542E+01 2.395153053883E+00 1.750722157162E+00 -1.324862413784E+00 -4.977612219177E-01 4.873088678576E+01
 2.191158874842E-01 -1.565148253395E-01 -6.328654510000E-01 -9.956569433365E-01 1.847044170886E+00 -3.999605597097E-01 2.182343440693E+00 -3.712552706776E+00 -3.913113903493E-01 -8.849640414824E+00 2.883262813520E+00 -6.264913547711E+00 -1.599661206338E-01 2.389051048855E+00 -1.299190714420E-01 4.961422367050E+00 3.851860441425E+00 -3.232057128012E+00 -1.089571242446E+00 -1.609936120760E-01 1.585953655352E+00 -8.649239412178E-01 -3.110435070739E-01 1.096692156039E-01 -3.452447828997E+00 -3.276596511709E+00 -1.397113299794E+00 1.354945976140E+00 -1.030061241034E-01 4.070642231628E-01 7.497266407120E-01 -9.152289044055E-01 1.330605187052E+00 1.872845932566E-01 4.800771570626E-01 -9.763517212116E-01 -1.577126186601E+00 8.046791108112E-01 5.826888794846E-01 6.793158117136E-01 1.227951624836E+01 -1.454090034831E+01 8.669178969152E+00 -1.438625184178E+00 -5.370707421838E+00 -8.519531161113E+00 -3.553090140894E+00 6.770951728450E+01
 6.075438734397E-01 1.678837358302E-01 4.300389418949E-01 5.167473365232E-01 8.231608976564E-02 8.514261475671E-01 -4.721204084022E-01 -1.038895994936E-01 7.735959140616E-03 7.957426480524E-01 -8.702369495030E-01 -1.819730416020E-01 -7.754747693161E-01 7.837136075827E-01 -1.231879506308E+00 7.988073181927E-01 2.827200099069E-01 -1.100483461456E+00 4.961709894753E-01 6.715968136469E-01 8.819937053114E-02 1.250274053504E-01 -9.804697894531E-01 2.614897295261E-01 -7.520695338002E-01 9.860965278259E-01 8.593417307468E-01 -1.673824451062E-01 -2.044742359220E-01 6.866831827813E-01 -9.389266200934E-02 1.227783155168E+00 -8.004473104332E-01 -3.830204129376E-01 6.674566250739E-01 -3.931746286059E-01 -4.794195462096E+00 2.516638733780E+00 2.784261950023E+00 -2.643419083893E-01 4.178978902332E-01 -1.580686313216E+00 -6.113027307202E+00 -3.584921473063E+00 -4.000256812593E+00 -1.264172531424E-01 -2.274127307892E+00 -2.014451657996E+00 1.819837099945E+01
 -1.004981775585E+00 5.500485246037E-01 3.138799754506E-01 2.052708655532E-01 -8.286559906391E-01 2.060658155616E-01 1.275542532562E+00 6.032932678686E-01 -4.081591899479E-01 2.732637518439E+00 -2.243444103304E-01 -1.685984179196E+00 -1.873302483922E-01 -3.166979819196E+00 2.662031673275E+00 6.448038557183E-01 -1.002695650961E+00 -1.002303062097E+00 3.371641682543E-01 -1.351171662408E+00 1.269189937577E+00 -6.801903457127E-01 9.844307588913E-01 -3.289884405271E-02 -2.487673937966E+00 -1.086593338262E+00 -1.281190269489E+00 -1.648340316232E-01 1.134138427056E-01 2.102559188016E+00 -1.846765102750E+00 -2.972799894579E-01 1.159509416334E+00 8.265185370445E-01 5.992823800041E-01 9.537298747208E-01 2.219230964596E+00 -1.829176017972E+00 -1.687676458954E+00 -6.425083137282E-01 -7.528152567608E+00 -2.563141496273E+00 -2.980045136873E+00 -1.692030388440E+00 4.594134654752E-01 5.024770729807E-01 -3.893472718384E+00 -8.492725977333E+00 5.154143537582E+00 2.491355956541E+01
 -1.117634273065E+00 3.167706094770E-01 3.645577210155E-01 1.015388096451E+00 -5.448791056702E-01 -1.163723713340E+00 -4.580411860122E-01 1.217822031829E+00 -1.981273594502E-01 1.276251067206E+00 5.512722101888E-01 1.374997177475E+00 -8.190606512792E-01 2.170393251645E+00 -4.395013239644E+00 3.541722919423E-01 2.081340662788E-01 2.416137277793E+00 -1.501889483073E-01 -7.509366095988E-01 -5.527707240242E-01 -1.551081163923E+00 2.301960476149E+00 -9.160694704303E-02 -1.307104453911E+00 -1.389101132122E+00 -1.202144295114E+00 1.185950655008E+00 -7.634886778842E-01 4.517519416331E-01 -7.458581531820E-01 -8.956705679979E-01 -8.972974037195E-01 -2.204512414551E-01 -4.358831731968E-01 2.386839266005E-01 1.174502607601E+00 -8.140351344540E-01 -1.671924972520E+00 -7.328932323175E-01 8.838665366331E-01 9.641080792634E-01 -1.688290829216E+00 -5.406449029092E-01 -1.629294071405E+00 -2.899399444542E+00 -1.163598666407E+01 -1.745114150551E+01 1.388211695317E+00 7.195824117285E+00 2.942265277387E+01
 -4.238708142383E+00 2.617995375070E+00 4.827378658232E+00 5.316296013800E-01 -4.810779799013E-01 -8.084920225327E-01 9.610533072546E-02 8.098172165806E-01 2.348149323031E-01 -1.394894184188E+00 -6.858258940344E-01 1.972822916891E-01 -6.974091590205E+00 -3.877089822068E-01 -2.190892320822E+00 -1.759038071521E+00 -2.065824540524E+00 -3.625634840681E+00 -7.139434816092E-01 -4.627973939646E-01 7.642238074242E-02 -1.044058610875E+00 1.674090241856E-02 -1.985883445703E-01 3.130622777952E-01 -2.002870525340E-01 -1.149958214499E+00 9.821875291588E-02 -9.611386668752E-01 -4.846817388205E-01 7.749260926133E-01 1.865444401927E-01 1.091323350010E+00 -9.238419733438E-01 -5.636829936050E-01 -9.084631415083E-01 -7.354866673905E-01 4.804486414437E-01 1.375576175253E+00 -9.362345145464E-01 -1.017955982443E+00 4.166476879710E-01 6.065608672947E-01 -4.248056066633E-01 -7.393349568568E-01 1.733138084561E+00 2.187345492202E+00 9.878699366969E-01 -5.210618748510E+00 -3.917992547942E+00 3.095175283782E+00 1.852423882370E+01
 1.054377160456E+00 -1.220614655182E+00 -6.342534296855E-01 -1.771048068799E+00 7.619234917660E-01 -6.867388076240E-01 6.080406572440E-01 -2.538759263874E-01 -5.364255796897E-01 -8.586114671966E-01 1.224029664287E+00 -1.452347482912E-01 -4.453285363250E-01 -1.221369444181E-01 -5.108882134867E-01 -2.121154394999E+00 -8.188621775524E+00 -1.190224755452E+01 -1.035124311076E+00 -3.543190644672E-01 1.055423106022E+00 -8.668240896179E-01 -8.808558025621E-02 -1.658793080696E-01 -4.861210670927E-01 -1.783804106891E+00 -4.360253497250E-01 3.179352005914E-01 -1.255266272243E+00 -9.539538453592E-02 6.573313835772E-01 -1.884552997798E-01 1.074415784085E+00 5.275560056174E-01 -1.270259816465E+00 3.673551513059E+00 8.160438159754E-01 -8.067732702944E+00 -1.598951195706E+00 -1.057408215130E+00 -9.485131856015E-01 1.234583708847E+00 3.678957171641E-01 3.190307972261E-01 -2.314044699819E-02 2.177483515992E+00 2.315145034256E+00 3.921179139214E-02 -4.358423630240E+00 -4.037271889798E+00 3.351372766989E+00 3.632350759489E+00 2.263969367537E+01
 3.147100344662E+00 -1.289813949177E+00 -3.845481802109E+00 -1.182378316254E+00 -2.175216192760E-01 -7.580191477114E-01 1.438043607862E+00 5.499446811458E-01 1.132681095157E+00 9.989219740724E-01 -1.346907168748E+00 -8.556569115190E-01 -6.226774429539E-01 -1.544461906477E+00 -1.018112080409E+00 -1.647901894925E+00 -8.183132755223E+00 -1.372433450791E+01 -4.663174987012E-01 -1.472240879044E+00 6.144565887422E-01 8.887394469775E-01 -3.998623004913E-01 -5.244526176528E-01 -8.054454639351E-01 1.839670793465E+00 -1.528479610587E-01 -6.117364150116E-03 -1.574880536939E-01 3.575340752381E-02 5.822942070525E-02 3.965452202511E-01 7.794528566279E-01 -7.094485452085E-01 9.236150960110E-01 -7.890828405248E+00 -1.010860313177E+00 -2.490094968264E-01 -2.152802938165E+00 9.286871787226E-01 5.179164870569E-01 3.960123723087E-02 -4.561597222298E-01 -3.772230875522E-01 -4.434833132385E-02 -1.554520095320E-02 9.855791111221E-01 2.480886057635E-01 3.988075286371E+00 4.081191255181E+00 -3.359238762526E+00 -1.929190671312E+00 6.303353839497E+00 3.274978069992E+01