#BIOSYM hessian 1
@Type: Hessian Update
@Units
 distance: 	A
 energy: 	Kcal/Mol
#header
@natom 19

#label
L1      L2      L3      L4      L5      L6      L7      L8      L9      L10     L11     L12     L13     L14     L15     L16     L17     L18     L19

#element
Li Li Li Li Li Li Li Li Li Li Li Li Li Li Li Li Li Li Li

#matrix
57
 3.326286589602E+01
 -3.514966255618E+00 1.002027360352E+01
 -2.331337351216E+00 -1.049722958779E+00 6.468002306963E+00
 1.796617417738E+00 -2.885560994762E-01 5.268982639281E-02 1.856278118101E+01
 8.691410767520E-01 5.860516542865E-01 -1.171273168280E+00 -7.594777549975E+00 1.833923050913E+01
 -2.362730566815E+00 -9.272244968626E-01 -4.402866632438E-01 7.194743541256E+00 6.759442574970E-01 1.044796283346E+01
 -1.059572413399E+00 9.511291672298E-01 -7.405231643133E-01 2.603730707515E-01 2.766174009332E-01 -1.082841167196E+00 1.337491221639E+01
 -5.105865132507E-01 1.165301773141E+00 -3.781414572107E-01 4.801397023958E-01 9.200217283633E-03 -9.460872967091E-01 1.108077902876E+00 2.478173683372E+01
 -8.408466133545E-01 1.786598781230E-01 -2.600849044453E-03 -4.709564378877E-01 -6.009980839231E-01 -1.150454033243E+00 3.133913337792E+00 6.066146566632E+00 1.736274239489E+01
 -6.655390426530E-01 -6.984666426984E-01 1.401256706935E+00 5.735343402240E-01 -6.396719337749E-01 2.775492881342E+00 -3.248108188397E-01 6.387471794002E-01 1.516427804910E+00 1.218005516160E+01
 -2.242629670036E-01 -8.686576566175E-01 1.169130227315E-01 1.026479991634E+00 -1.568939617906E+00 -1.696016513475E+00 -8.729575139055E-02 1.603380037659E+00 1.395299167380E+00 -4.097682327329E+00 1.542533079447E+01
 -2.131571563647E+00 1.620878707521E+00 3.594889615017E-01 9.546256001829E-01 -9.970480119904E-01 2.603678830012E+00 -1.153759774805E+00 -1.101262358178E+00 8.636602241805E-01 7.510688183162E+00 3.609367037909E-01 1.450077609378E+01
 6.710565762085E-02 1.185838345800E+00 -6.456951309916E-01 -3.125450173922E-01 6.210016965413E-01 -8.674963518047E-01 -3.884144876284E-01 -4.723475233298E-01 -5.344336154807E-01 -2.108095999420E+00 -1.565349684985E+00 -1.429787101103E+00 8.457213887818E+00
 4.982659404617E-01 -7.013283602787E-02 1.108990827792E-01 -3.818104459334E-01 1.105146789068E+00 -5.062892977978E-02 3.406511126229E-01 -5.674347073498E+00 1.176982220365E+00 -1.545875517724E+00 -2.435197456762E+00 -1.416737854957E+00 1.137535536868E+00 1.145467033014E+01
 -7.086752464294E-01 -5.494038458717E-01 -6.053551411268E-01 4.737706701618E-02 -3.545689220746E-01 -1.147723012057E+00 4.470281760300E-02 3.064546189654E-01 -1.205880787282E+00 -1.090674964400E+00 -2.172223827486E+00 -3.870962185243E+00 5.597432581990E+00 -7.696184205132E+00 2.900890362669E+01
 -2.559502591899E+00 -1.548268854763E+00 9.178598825881E-01 -7.421747675982E+00 -1.813778706445E+00 -2.074918226701E+00 -9.378013475599E-01 3.802321630217E-01 1.418216112729E+00 2.387225471604E+00 -1.688908164247E+00 -2.665302844118E-01 -1.410129962937E-01 -1.936180259064E-01 3.588283586332E-01 1.941117869655E+01
 1.156297059417E+00 -6.792154202163E-01 -2.511887462078E-01 -1.162544645899E+00 -8.909804772714E-01 -7.015051815003E-01 1.298340791386E-01 -3.309621012369E-01 -7.067296933513E-01 -4.019675432440E-01 -9.967996150830E-02 -1.459299851140E+00 7.668298156667E-01 8.238013997136E-01 5.220151544068E-01 5.230936903167E+00 4.645924504029E+00
 1.674600989081E+00 -2.172518493063E+00 -2.893357255947E-01 -1.310931559293E+00 -1.382646984380E-01 -5.447021026949E-01 2.808235180592E-01 2.656307538291E-01 -2.414802804899E-01 -2.857403379535E+00 -1.779236297619E-01 1.410780151030E+00 1.009245313115E+00 4.919000030437E-01 -8.481028082911E-01 1.087859506482E+01 5.169965762459E+00 1.685989980801E+01
 -1.669178545829E+00 6.025415341000E-01 7.474078620684E-01 -3.524344396645E-01 1.892329643356E+00 1.061348408805E+00 -2.080929487977E-02 -9.474965304337E-01 4.937060304064E-01 -6.866067548953E-01 -5.713423455750E-02 -5.357948407692E-01 4.539480162133E-01 9.020035035957E-02 1.704864943878E-01 -1.596931780468E-01 -9.029155162932E-01 -6.366959127961E-01 7.936430966675E+00
 -8.543322566459E-01 8.445601751405E-01 -2.229348021092E-01 1.386750106868E+00 -4.741077446048E+00 -3.524735043597E-01 -4.478709539861E-01 -1.202732215773E+00 9.620788992966E-01 -1.343010471893E+00 -1.583392198533E+00 -2.454106638893E+00 1.334640124185E+00 1.136958785182E+00 1.741085397939E-01 -2.452282972474E+00 8.941962965438E-01 3.143494940895E-01 -2.037391337044E+00 1.625586455206E+01
 1.202361819634E+00 -1.721766153802E-01 -1.017025188333E+00 -1.166347464806E+00 3.715103611840E-01 -1.907718287166E+00 2.743084304220E-01 -4.640052829110E-01 -2.614034671532E-01 9.948557077296E-01 -6.272074516484E-01 -3.010168399917E-01 -4.270827728955E-01 5.365629312855E-01 -1.474949198508E+00 3.930252705571E-01 -1.676020264166E-01 3.815563852033E-01 -7.207456364821E+00 1.144448679672E+01 2.081968678471E+01
 -6.947769778746E-01 1.388224841125E+00 -1.425137417209E+00 6.287459584314E-01 1.164484906318E+00 -1.054862101341E+00 -6.624385783776E-01 -5.841745607792E-01 -6.755962679595E-01 -1.962250009708E+00 1.127335180833E+00 2.229776392889E+00 -2.121942097363E+00 1.757667813163E-01 -2.266515395032E+00 -2.178930359441E+00 5.485429622560E-01 4.488385274352E+00 -1.221446057606E+00 5.993874321085E-01 -5.550966016187E-01 1.383047433072E+01
 1.075566086384E+00 -2.857893799264E-01 5.441768608846E-01 2.630957690984E+00 4.149181002436E-01 1.357058641275E+00 6.929746088744E-01 6.147517069984E-01 1.015272186404E+00 -1.708911588364E+00 -1.211435159272E+00 -1.662438427222E+00 2.844464973797E+00 -6.589194322534E-01 2.540138357342E+00 -1.699748574107E+00 -2.716066775823E+00 -2.519238182484E+00 6.393624414114E-01 -1.257220780773E+00 -1.795641092418E-01 -1.285018833093E+01 1.959444071621E+01
 -2.759068064103E-01 2.221352026337E+00 -4.886043674633E-01 -5.576050198603E-01 -1.220302071996E-01 -1.131575703812E+00 1.459605714361E-01 -4.511742194715E-02 -1.304246791827E-01 -1.149705327843E+00 -6.908068255512E-01 -1.087061940891E-02 -1.590281265776E-01 8.498178354149E-01 -5.351125631499E-01 -3.133008205614E-02 -5.719205414346E-03 3.278415883237E-01 1.202324231191E-01 1.297931497971E+00 1.146885999452E+00 4.675059144809E+00 -6.145649478087E+00 5.587012826995E+00
 -4.242514953632E+00 -3.055804300361E+00 -1.208483427667E+00 -1.359315018966E-03 5.647388843842E-01 -2.645749629896E-01 -4.354511390616E+00 1.864216364403E+00 -2.981202178052E+00 -1.336377062107E-02 1.360817290580E-01 7.911502116666E-01 -1.188281611662E-03 -2.382949985637E-01 -7.096811274478E-01 -5.117750205425E-02 -3.629555972417E-01 5.595776615007E-01 -6.499490266274E-01 -9.852172151534E-02 8.169471127244E-01 6.620925388507E-01 9.964472544010E-01 -1.598391058285E-01 1.447270249883E+01
 -2.611476909153E+00 -3.059114087403E+00 -6.323853716036E-01 4.050654496952E-01 2.073111781301E-01 6.393385473254E-01 2.208319729839E+00 -3.150419815049E+00 1.429768283497E+00 -7.658286396140E-01 -1.897360147021E+00 2.218388794509E-01 7.464091309159E-01 -5.600430141566E-01 -3.344584875093E-01 -1.558613192335E+00 6.030262950732E-02 -4.106456849437E-02 -2.821738717918E-01 3.382408430207E-02 9.426206366380E-01 -5.724446848326E-01 3.829103163156E-01 -2.129427346311E-01 -7.202456622487E-01 2.402406764684E+01
 -5.186942714234E-01 -1.415936175854E-01 -1.407614997914E+00 2.441059275913E-01 -4.646357139606E-01 1.193508859130E+00 -2.127167179504E+00 1.350499069866E+00 -3.615357469922E+00 -5.144060189327E-01 -3.448608042508E-01 -4.984181579684E-01 -4.003943328817E-01 5.833773131067E-01 -1.188673974274E+00 1.104783731063E-02 -4.833358654185E-01 -8.403261113323E-01 -5.302109510845E-01 5.193195279821E-01 5.497953549814E-01 1.106302988059E-01 -1.023176265036E+00 -2.717677271050E-02 1.317716074280E+00 5.118125994394E+00 1.437532554245E+01
 -1.375438253455E+00 8.095182384727E-01 -1.795225592333E-01 1.010846766738E-01 8.187091366644E-02 5.389791067431E-01 -5.230885859677E+00 -4.410770450886E-01 1.785534773702E+00 -1.556172261794E+00 2.238447432299E+00 4.954305269278E-01 -1.804350913018E+00 -2.521136850312E-01 1.467885282241E+00 1.473500093359E+00 -6.499081070232E-01 -7.350556015825E-01 -4.413885929513E-02 1.229589026089E+00 -1.494109546242E-02 -6.211860658882E-01 7.765752262826E-01 -1.226646125533E+00 -1.208850930816E+00 -2.909393450241E-01 2.951497162800E-01 1.988409228294E+01
 4.595414391416E-01 -1.498408491198E+00 -3.197333284949E-02 -7.905898080392E-01 -1.235476431660E+00 -5.265745856195E-01 -2.156566833246E+00 -2.030288887115E+00 -7.856878429069E-02 2.901399113514E+00 -7.299150158936E+00 1.303711622036E+00 -2.162463680323E-01 -1.056035117449E+00 8.575884117061E-01 1.226777532756E+00 -5.497853205864E-01 -3.052568090710E-01 9.590758926520E-01 1.459747114245E+00 5.235588545323E-01 -6.039130491835E-01 -5.936282498367E-01 2.655690751668E-01 -1.060995637739E+00 -3.732168193157E+00 7.793215333150E-01 1.147900277627E+00 1.523767265550E+01
 1.576759774395E+00 -1.329698335760E+00 -1.570076128455E+00 -1.060044746937E+00 -1.567274636522E+00 1.226472394612E+00 3.427344150022E-01 -4.699143889422E-01 -1.065906871060E+00 3.935758368492E-01 -8.663865555752E-01 -1.191824272297E+00 1.229490171738E+00 2.567320315728E-02 -1.302161162704E+00 1.156991742002E+00 -7.216526668017E-01 -2.131923886273E+00 -5.357111291688E-01 -3.473457257934E-01 7.390369366988E-01 -2.345038706373E-01 -1.999924967314E+00 3.001531849428E+00 7.459708013204E-01 1.343020489085E+00 -1.774655716427E+00 -4.293995460806E+00 1.114976806940E+00 1.902063210320E+01
 -1.507110172135E+00 -4.275837981104E-01 -6.087033892340E-01 3.538607505039E-01 -5.352366008370E-01 -1.514907542309E+00 6.570833506781E-01 8.542284888906E-01 1.343734094306E-01 -7.133513734329E+00 5.160734307090E+00 -7.200858971426E+00 1.877629460218E-01 1.013378238406E-01 -7.230836088166E-01 -1.026425825236E+00 3.253420254089E-01 -6.498393840279E-01 9.804874536445E-01 1.947036578275E-01 4.372010773993E-02 -1.528076772095E+00 1.725648649701E+00 1.620684125109E+00 -6.993078705189E-01 8.197585514612E-02 -2.726726989330E-01 -2.636249120560E+00 -3.047297149847E+00 -1.197589539694E+00 1.358842079183E+01
 -1.056778505237E+00 -9.508359427994E-01 9.801883695582E-01 -4.754446589907E-01 2.241553642044E-01 3.165759141405E+00 -1.511422570187E+00 -1.553177115579E+00 -3.796865481021E-01 3.417871709719E+00 -1.221833349378E+00 1.460649975369E+00 -8.624143130542E-01 3.769246742662E-01 -6.707240462226E-01 2.807071066971E+00 -5.362235632880E-01 7.954405148541E-01 -6.778169107464E-01 -7.767581644625E-01 3.364123088209E-01 9.274213217494E-01 -1.367571514633E+00 -1.171125748077E+00 3.838700404461E-01 -1.566524612833E-01 1.129163670973E+00 -2.529936912203E+00 -2.202048905168E+00 -2.619435111281E+00 -3.414195152402E+00 1.061203883683E+01
 -5.971997068097E-01 -1.966499999022E-01 -2.376710810409E-01 5.352618159750E-01 3.946086128474E-01 1.097170102369E+00 -7.112997932903E-01 -3.081434793800E-01 4.628335447121E-02 -2.144411915059E+00 2.559455272737E+00 -5.446084723405E+00 1.451027047919E-01 -5.485338385710E-02 9.567520551122E-01 -1.667906053517E+00 -5.929139483009E-01 -4.827396483537E+00 3.713689291753E-01 1.830156078533E-02 -4.865269134413E-01 -2.636776654489E+00 1.451450141014E+00 2.097130811675E-01 -2.037024068699E-01 -1.310386443714E-01 6.131346799732E-01 -1.969120382261E-01 -2.257775896437E+00 -3.349576713134E+00 6.059283439229E+00 4.384040154414E+00 1.147478623383E+01
 -2.026267185646E+01 6.157117230109E+00 2.957999615146E+00 1.519331307597E+00 -9.616774899875E-02 3.737637619441E+00 -5.482283542897E-01 2.435821023887E-01 1.385644194231E+00 1.918849322545E+00 6.089777153735E-01 3.436164576345E+00 -1.464927109879E+00 -1.172700257841E+00 1.876384429171E+00 -3.733894879276E+00 -3.062727554894E+00 -6.108927421433E+00 1.335004670345E+00 -4.602504109198E-01 -2.374261130473E+00 9.697318018300E-01 -1.584612519484E+00 5.210808030860E-01 2.202232143246E+00 1.348285111008E+00 8.709510240046E-01 8.206670402663E-02 1.105339786557E+00 -1.821371588062E-01 -4.443910821129E-01 8.570867826494E-01 1.242585088666E+00 3.299257265953E+01
 6.780005949111E+00 -3.058085839683E+00 -3.755305799754E-01 3.020919636679E+00 7.133754738424E-01 -4.547980919015E+00 -2.817700714846E-01 2.369919019674E+00 -5.669522266063E-01 2.596035088885E+00 6.181935116271E+00 -2.509557906839E+00 -2.448742985971E+00 -3.082261462637E+00 7.607434565871E-01 -4.968006580855E+00 -9.795175581562E-01 -5.540450568383E+00 -1.918790452112E-01 5.679552333390E-01 -2.970871919394E-01 1.705309987047E+00 -7.743922482670E-02 6.947790473225E-01 2.125847413671E+00 -1.326401750500E+01 -4.199208362603E+00 -7.711424424907E-01 1.238527469394E+00 2.699663604576E+00 -2.286479248547E+00 -2.260036201100E+00 6.242049404634E-01 -1.257804015291E+01 4.469525693564E+01
 2.777975796105E+00 -2.264146419309E+00 2.136272763255E+00 3.005049568909E+00 -2.568441650380E-01 -1.585837767828E+00 8.472483439043E-01 6.373325467901E-01 2.769611291349E+00 6.738718271334E-01 2.462850301559E+00 3.226423684457E+00 -2.444224451475E+00 -2.075219843902E-01 2.419803186552E+00 -7.509870352495E+00 -4.024518306063E+00 -3.403181314144E+00 -4.869882368499E-01 5.529914412718E-01 1.961909441940E+00 1.643911897693E+00 6.469261335591E-01 -1.817080286253E+00 1.119544737497E+00 -5.660676989297E+00 -1.213276178006E+00 1.856076199230E+00 1.619157064125E+00 -8.370579212721E+00 -3.643687626951E-01 -1.264605128442E+00 -1.231232272333E+00 3.030355038502E+00 -1.020785690171E+00 2.349695095756E+01
 1.846512628602E+00 -7.808320084283E-01 -8.013031963209E-02 -6.419537518493E-01 -1.645821293275E+00 6.331092836086E-01 7.185107746464E-01 -1.942735384558E-01 -1.367146020324E+00 -1.660106775082E+00 2.588360006321E-01 4.028666649912E-01 -4.410462049889E-02 -1.768180422354E-03 -1.257913530481E+00 2.949748846803E-01 -2.155852000248E-01 1.018463084613E+00 -1.582696455480E+00 7.103149133450E-02 9.439262433895E-01 6.950216635162E-01 3.418161241812E-01 -5.774919756420E-01 -6.672539489150E-02 4.997963437028E-01 1.347337544501E-01 -6.172512074126E-01 -1.580750315176E+00 1.727626044471E-01 -2.872024429010E+00 2.921898611520E+00 8.392085544116E-01 3.097758939770E-02 2.859265409897E-02 -1.403545035336E+00 1.042293226824E+01
 6.081309487047E-01 -7.372215736707E-01 -3.990914010424E-01 -5.007821122375E-01 -1.571709251535E+00 1.083143663109E+00 1.153595893068E+00 -1.283584254676E-01 -1.096927078757E+00 -1.893609963919E-01 -1.815287172420E+00 -2.449223139164E-01 -3.690573999849E-01 6.543671776225E-01 -2.715270322466E+00 7.204215771114E-01 9.136382694405E-01 1.327243141728E-01 1.080574311744E+00 1.310084950670E-01 -2.102343047861E+00 2.603206834298E-01 -1.114016639324E+00 4.693334360885E-01 -1.268790599833E+00 1.347551260794E-03 -1.073988599740E+00 -7.029101747435E-01 -1.827058199614E+00 1.316554212482E-01 1.253767496795E+00 -3.769712657486E+00 -1.786746020477E+00 -1.057979249896E-01 3.935320285984E-01 -1.387610472929E+00 9.984509813275E+00 2.557207601344E+01
 -1.034120726295E-01 1.651136705717E-01 -5.447962652291E-01 4.956374392207E-01 8.331074839031E-01 -6.066144548362E-02 7.566391559022E-01 -7.015576567958E-01 -2.250999049329E-01 -1.203648975878E+00 -3.265635592036E+00 -5.805095892646E+00 -2.326519457018E-01 7.911169845476E-02 4.427765183357E-02 -2.939241202708E-01 -1.011440564553E-01 -6.810732447167E-01 1.816918554123E+00 1.240107867055E+00 -2.566675647354E+00 6.591274949469E-01 1.332912360115E-01 -9.738971055904E-01 -3.846417919131E-01 7.378473036025E-01 4.378591762818E-01 4.176851232295E-01 -1.254579564847E+00 -1.425548177313E-01 1.264511894203E+00 -1.436413174435E+00 -1.754281515734E+00 -1.645675306362E+00 5.595738033466E-01 -2.917397717061E-01 -2.261071987112E+00 3.121844784822E+00 9.776857114726E+00
 2.473934223403E+00 3.155334762803E-01 1.021064535196E-03 2.910562665158E+00 5.305849678175E-01 -1.143440361022E+00 -2.629559843486E-01 1.654884202048E+00 -1.283058119489E-01 1.447366948571E+00 1.540274697060E+00 -4.208881135994E+00 1.133282599719E+00 -6.296599296484E-01 3.980770561030E+00 -5.444838627088E+00 3.830754654208E-01 -5.521260673927E+00 -2.010644726800E+00 6.482925166347E+00 8.830090688459E+00 -4.983314153983E+00 3.322465368415E+00 -3.654968686213E+00 5.195457648235E-01 7.653319071705E-01 6.648249282757E-01 1.153452937772E+00 -8.446861896423E-01 -2.563507293738E+00 -1.467493578184E+00 2.634546274395E-01 1.417761449959E+00 -3.959425721036E+00 3.226638569599E+00 1.756496725331E+00 -6.546422208471E+00 -1.427922974581E+01 8.555013611104E-01 2.385740402111E+01
 -2.409006253896E+00 2.133957575885E+00 -4.897288015627E-01 -1.195585322270E+00 -6.167608257657E-01 2.736835173446E+00 -7.901595145930E-01 1.860865030334E-01 1.267073517756E+00 -2.510621322945E+00 -6.649264564937E-01 5.237037374586E-01 2.739567846783E-01 5.132759473406E-01 2.801018686434E+00 2.045790081999E+00 -5.913505861146E-01 3.010190625958E+00 2.549300746351E+00 -8.069896006105E+00 -8.198874754823E+00 1.146128709876E+00 -2.619383807549E+00 2.356495648725E-01 -9.227087653811E-01 1.007784885769E+00 9.564690144623E-01 -3.069692056029E-01 2.876112448280E+00 2.841050134372E+00 3.874349694281E+00 2.450597594631E-01 -1.763688942109E+00 8.336596072957E+00 -2.757498145616E+01 5.738306388700E-01 -1.038716489620E+01 -1.736060541019E+01 3.364357026230E-01 4.562495420056E+00 4.749498369383E+01
 1.851102638760E+00 7.222813199778E-01 1.182208357781E+00 -2.989149205983E-01 1.472659346465E+00 -1.776248259128E+00 1.035084130813E+00 2.688080688309E+00 3.503951958753E-01 -3.019887622407E+00 4.788138427420E+00 -5.724405785479E+00 1.438931995660E+00 -1.274236226980E+00 4.316395266772E+00 -2.588992740317E+00 8.052124288808E-01 -4.541755113385E+00 8.660200025883E+00 -9.634057283012E+00 -1.508846734434E+01 -3.582319437495E+00 6.821647745565E-01 -2.709576759931E+00 -1.850460092559E+00 -1.507310905978E+00 -1.142115470493E+00 -2.328254679049E+00 -4.853854678426E-02 1.577011378909E-01 2.278498197635E+00 -3.187853279857E+00 1.547108885988E+00 4.489258322164E+00 2.773755682448E-01 -1.557423664994E+00 -1.142321134151E+00 1.634892435619E-01 1.880211662272E+00 3.590425803119E+00 1.152256733645E+01 2.815181690117E+01
 -1.474602327812E+00 -2.873592932493E-01 -2.633884682416E-02 -5.356217730073E-01 -5.274438455374E-02 -9.109094711476E-02 -3.442657823471E+00 1.644991065631E+00 1.124527840126E+00 1.135581882669E-01 7.696676710487E-01 4.563046336623E-01 -3.243180432106E+00 6.881410963517E-02 2.448033070366E+00 4.752803566671E-01 2.387975143020E-01 -9.463044684413E-01 2.420611841992E-01 -3.952927671954E-01 -4.797394644548E-01 -1.256395286626E-01 8.139365476269E-01 -9.535530601703E-01 5.400164684826E-01 -4.665970036490E-01 -5.087324645813E-01 -4.606768724480E-01 -2.933591143354E-01 -3.527699885633E-01 9.152646017561E-01 1.099612347889E+00 3.904087315829E-01 -1.715635785257E+00 -1.858136461588E+00 1.642746669772E-01 -8.236631084698E-01 -1.706923517566E-01 -7.769082520954E-01 2.083786107308E+00 1.097152065749E+00 1.306311180058E+00 3.717631286113E+01
 8.804075962257E-01 -5.487874461781E-03 1.004155610376E-01 -9.482535411826E-02 5.883307649420E-02 -4.395996676052E-01 2.363785081593E+00 -3.281556056740E+00 -1.372785924130E+00 1.801410159069E-01 -1.840915447309E-01 1.462056432779E-01 -1.722805601594E+00 -1.092789776469E+00 6.130279954569E-01 -1.643120632201E-01 5.199768582177E-03 -1.035319160699E-01 2.040946077473E-01 -6.181305999006E-01 -4.685543495785E-01 1.162899723507E+00 -3.336578888690E-01 -8.301362160957E-01 -2.211068945691E-01 -2.464668686856E-01 -8.978729466551E-02 5.930270837428E-02 2.879733105354E-01 6.817537971529E-02 -4.942579556843E-01 6.629664970812E-02 -4.015214568965E-02 -7.741524929020E-01 5.016616295051E-01 2.841509935747E-01 -2.177992915287E-01 -5.294010123698E-01 4.417551914744E-01 -4.277296464603E-02 6.937583010853E-01 1.389242686077E-01 1.093266130648E+00 5.797290057187E+00
 8.022873309777E-01 1.092548458551E-01 2.808120238980E-02 -5.514276449733E-01 -9.880608741122E-01 1.394674643433E-01 6.656709950674E-01 -9.111793128178E-01 -1.269210626981E+00 1.713455701293E-01 5.792695793842E-02 1.081128610481E+00 2.653231323603E+00 7.613151792781E-01 -2.377380478274E+00 4.727710484734E-01 7.997210007125E-02 -4.840718164577E-01 4.832567579910E-01 7.182576561337E-01 1.954285713957E-01 -4.274646575170E-01 -2.834898827691E-02 -5.897038601995E-01 -1.813125417048E-01 1.048740387665E-01 -1.908884719800E-02 -8.502786747570E-01 -1.882070275351E-01 5.229259478953E-01 6.391991802118E-01 1.149808554339E+00 4.039678949858E-01 -6.327983597486E-01 -7.684770549856E-01 -8.727501695007E-01 1.861429212023E-02 -4.089231318744E-01 1.830519627252E-01 -1.812560716994E+00 2.933465434797E-02 -1.845065565702E+00 2.784876563692E+00 2.090064285957E+00 1.243380936613E+01
 -3.317324164460E-01 2.292987021629E+00 -1.218439448471E+00 -2.492685107241E+00 -4.277038681559E-01 4.920724938662E-01 1.105996321047E+00 -4.231731614637E+00 -4.354140988745E+00 -2.052379337018E+00 -5.612099408180E+00 -3.885466464298E-01 6.333203687105E-01 4.507443450071E-01 -6.524283006008E+00 1.457751374313E-01 4.439145844922E-01 8.276058170283E-02 3.401901894696E-01 3.548748651828E-01 -4.804743439399E-01 -3.538754247577E+00 5.151779774272E+00 1.417220547907E+00 -6.535088573576E-01 -1.021419328369E+00 5.758504991529E-01 -7.392887861667E+00 2.569556957515E+00 4.453095541840E+00 1.293223506199E+00 -2.017162332292E+00 -1.022223703206E+00 -5.255741306790E-01 5.122074034607E+00 -4.473070937164E+00 1.155892701487E+00 9.010761723125E-01 1.284873365352E-01 -6.165814002150E+00 -7.689835126632E+00 -5.003010651684E+00 -2.637180870605E+01 -1.562915266647E+00 -2.079087786000E+00 4.564799050289E+01
 -1.741249684389E+00 -1.118809639710E+00 1.245133988598E+00 -9.825675922017E-01 7.954334825233E-01 1.084846065499E+00 -4.265881886867E+00 -1.257712861084E+01 -8.088755235187E+00 1.962517049368E+00 -4.356587439820E+00 2.228039842239E+00 5.488722721624E-01 4.071570824477E-02 5.792567762077E+00 6.665747857836E-01 1.436796422920E+00 1.817054933185E+00 -1.293933747160E+00 5.195734985327E-01 -6.387068649783E-01 3.411205089962E+00 -3.710447102438E+00 -3.708968718797E-02 -1.486118711999E+00 4.158711808440E+00 1.515315604938E+00 -2.332468537805E-01 2.254584473953E+00 2.602159862764E-01 -3.758859137810E+00 2.008064585353E+00 -1.808327743887E+00 5.775288021014E+00 -8.027934039314E-01 -7.262303358964E-01 1.021789969037E+00 2.075831557975E+00 6.981071193928E-01 -4.998078153538E+00 -5.202710751425E+00 -4.932763855139E+00 -2.165431132098E+00 1.213280426638E+00 1.036203753437E+00 6.438514294122E+00 1.881098843346E+01
 -1.511760736835E-01 3.801667164584E-01 6.110033828740E-01 -2.774042790013E+00 1.312569569269E+00 2.523382619870E+00 -3.545600384097E+00 -7.151552085729E+00 -5.079820687704E+00 -6.658716247119E-01 3.889216539059E-01 4.555213964963E+00 -7.556621528614E+00 4.416442002345E+00 -2.220818727728E+01 2.374893325543E-01 6.429162182419E-01 6.714623596980E-01 -1.028015591389E+00 2.028088063397E-01 1.686388478858E-01 1.378643034156E+00 -5.997083055243E-01 2.596682835597E-01 6.215445165036E-01 -2.652363266835E-01 8.849255558499E-01 3.159279669213E+00 -2.600191432136E+00 -2.157251469454E+00 -3.141397433335E-01 2.351598517263E+00 3.134225144924E-01 -8.319092468452E+00 3.945944617797E+00 -4.222997343085E+00 2.212766234183E+00 1.971516617444E+00 -5.069159785505E-01 -5.654677800582E+00 -1.123941849903E+01 -1.157219895879E+01 -2.271150259626E+00 5.023060469161E-01 4.808976035464E-01 1.995834203436E+01 2.376776264702E+00 4.007873731192E+01
 -2.062763260602E+00 -1.844648199656E+00 2.497077835797E+00 -3.529725044071E+00 3.431862127848E+00 1.046285231608E-01 7.758582195293E-01 -3.104404435467E-01 -3.422243630022E-01 6.219670190373E-01 -5.602855931290E-01 9.203809614686E-02 -9.408941110826E-02 1.151211173478E-01 -7.655358836218E-02 -6.462114866882E-01 -3.845742400166E-01 9.515907828482E-01 9.602528889505E-01 -9.198804865301E-02 -1.283383222863E+00 2.035592477511E-01 -7.201118479743E-01 2.066020805108E-01 -1.133181844668E+00 4.756266726851E-01 -6.034270752114E-01 -5.210676158095E-01 -3.343015030906E-01 -8.410879032170E-02 -5.874944009605E-01 3.402232575072E-01 -5.326168641335E-01 -2.349265733925E-02 2.589742787520E+00 -2.929493832195E+00 -7.197073952744E-01 -2.678195318555E-01 5.764863547113E-01 -4.770738278924E-01 3.583686831411E-01 1.680922871615E-01 -8.074899458089E-01 2.572700768484E-01 -4.976647108638E-01 1.160646461654E-01 1.209399277513E+00 7.440916844077E-01 8.758555640350E+00
 -8.902067168553E-01 -2.648005370367E+00 2.757516764729E+00 3.828604461446E+00 -5.221037373698E+00 4.257162560826E-01 -3.751554790859E-01 -1.078032154323E+00 -1.668783762254E-01 1.546157165086E-01 2.479680178224E-01 9.044239565720E-01 -1.325781688183E-01 3.812096326434E-02 9.859705146562E-01 1.572130164465E+00 -1.030271374246E+00 1.007229911672E-01 -6.158741683800E-02 -1.914679249460E-01 1.549484943685E+00 -3.767028292258E-01 -5.206666291000E-01 -6.769551769858E-01 -1.649310663865E-01 -1.269086005526E+00 -2.586901509294E+00 -2.150031066740E-01 6.996815889015E-01 4.107005314977E-01 -2.610987184719E-01 1.279030205232E+00 -5.144763451668E-01 2.417435603157E+00 -7.664825268125E+00 1.112059560894E+01 9.887638210434E-01 -3.623645601444E-02 -9.102788017033E-01 -1.229446680735E+00 6.523724444755E-01 -1.440391098309E+00 6.214594317463E-01 5.919862456242E-01 -4.455078379610E-01 -2.890305860381E-01 7.356511696231E-01 -4.367026212631E-01 -4.766477075533E+00 1.808545026258E+01
 1.864655013574E+00 2.084735804301E+00 -4.109730196153E+00 4.487036640806E-01 -9.446532144622E-01 -2.724005966043E+00 3.677490255435E-01 1.114969185288E-01 -5.559213894700E-01 -1.968272193083E-01 -4.284017616929E-01 -1.378388909004E+00 2.872985219364E-01 1.859009430109E-01 -9.310489506611E-01 -1.138662554965E+00 7.643047936804E-01 -1.610613728070E+00 1.080432275039E-01 -1.103584889553E+00 -7.128212869522E-01 -2.559692990369E-01 1.222788085303E+00 2.891420883184E-01 -1.488665720489E+00 -6.445393601437E-01 -4.521415612584E+00 -3.504831660212E-01 1.191788230424E+00 -1.431173913927E-01 1.570598827544E+00 -1.711280945708E+00 -6.192652015271E-02 -4.803667086743E+00 1.076864738980E+01 -1.223327391542E+01 8.591794090997E-02 1.671717949794E+00 6.611179643425E-01 1.785620842099E+00 -2.464274701570E+00 3.871787615606E+00 -3.343930740433E-01 -1.857724003159E-01 1.129546474128E+00 2.603627544986E-02 -2.748551489039E+00 -3.228861732140E-01 1.137096049365E+00 -1.040811970577E+01 2.453227390962E+01
 1.700517758958E-01 -3.613818114172E-01 -6.204961667093E-02 -9.148538399785E+00 4.683065958559E+00 -5.404620727342E+00 3.457778431833E-01 -1.045668270301E+00 1.014903074311E-01 -8.880440625337E-01 1.547097780002E+00 6.550271470402E-01 2.188191682839E-01 4.624419474505E-01 -2.075474901091E+00 2.576042283737E-01 -6.647283935274E-01 -1.140636609702E+00 -4.365254644260E+00 -2.664519598879E+00 1.744635787534E-01 2.154350093362E+00 -2.229528804474E+00 5.288006055470E-01 -2.607171113113E-01 9.432646980139E-04 1.358671211658E-01 2.034757879969E-01 7.463266822916E-01 3.493354060937E-01 7.670112998768E-01 -9.992789520800E-01 -2.234424892912E-01 3.203584072029E+00 -1.160026857572E+00 2.613235970485E+00 8.975670036051E-01 1.383309523390E+00 -7.003165298268E-01 -6.019636141230E+00 -1.382342508377E+00 -3.786268836775E+00 -2.906537969009E+00 -1.420470042149E+00 -1.576099734731E+00 6.892016312006E-01 3.425070214661E+00 2.773440146199E+00 1.881151162557E-01 3.755197072161E-02 -1.289354985270E+00 1.733537877498E+01
 -2.720234929424E-01 8.557026040510E-01 -4.217837251142E-01 3.469727843988E+00 -3.819423348150E+00 1.315458608867E+00 6.364479684595E-01 6.226502454711E-02 -3.193630940281E-01 2.133026839842E+00 1.980636316794E+00 1.747070898235E+00 -1.282155023477E+00 -7.057188566530E-01 -9.867307961377E-01 7.219640611479E-01 2.184462408333E-01 -1.214684010905E+00 -1.673521448812E+00 -3.076021857716E+00 -2.027300403071E+00 9.729204158210E-01 -2.941557976515E+00 2.935980780289E+00 1.540221246318E-01 -7.055759571707E-01 -4.640176904314E-01 2.736764219935E-01 -9.165321601565E-01 1.302006722243E+00 -3.168799402566E-02 -1.247149903854E+00 2.461783399318E-01 2.957274320857E-01 2.148113811887E+00 9.493782425323E-01 -5.966957917526E-01 4.323166050462E-01 -6.578922342205E-01 -1.208579009083E+00 2.649799603633E+00 1.195306660428E+00 -2.244792105273E+00 -2.225866217230E+00 -2.162693137435E+00 2.635608078856E-01 -2.265653528114E+00 -2.751429882713E+00 1.310526215804E-01 -4.458638015798E-01 8.428388444212E-02 -2.368370906277E+00 1.592514553082E+01
 6.450725199789E-02 -2.854011366821E-01 -1.813195611196E-01 -4.794903294220E+00 4.031198514779E+00 -2.949399943628E+00 9.298463836838E-01 5.498100997062E-01 9.869037328297E-02 -8.045712173122E-01 -1.031810481600E+00 -2.567702269463E+00 1.652904148094E+00 7.661766809309E-01 1.492914032782E+00 -1.660299921771E-01 1.231535788945E+00 -1.128250934292E+00 -2.035279539487E+00 -1.638748146684E+00 -2.408682841579E+00 -2.306341549747E+00 2.772104341856E+00 -1.636967644620E+00 1.187577243434E+00 6.434996434784E-01 -1.888327178670E-01 9.472886608698E-01 -6.031844436790E-01 -2.917519891751E+00 -1.084316562533E+00 -1.362231251980E+00 9.225224050423E-01 -3.433146064810E+00 -1.247700369093E-01 -3.516871071648E-01 4.163458503147E-01 8.793941271020E-01 7.153702906464E-01 2.610530770745E+00 -2.457942715729E+00 2.725887823424E+00 -2.759947980477E+00 -1.460157299178E+00 -8.386334645229E+00 1.579104984460E-01 -2.439897522083E+00 6.917534216142E-01 4.878239604495E-01 -9.725172782855E-01 6.884161897053E-01 7.893259488998E+00 1.771981854273E+00 1.636513108197E+01