#BIOSYM hessian 1
@Type: Hessian Update
@Units
 distance: 	A
 energy: 	Kcal/Mol
#header
@natom 19

#label
L1      L2      L3      L4      L5      L6      L7      L8      L9      L10     L11     L12     L13     L14     L15     L16     L17     L18     L19

#element
Li Li Li Li Li Li Li Li Li Li Li Li Li Li Li Li Li Li Li

#matrix
57
 1.512721641162E+01
 -7.918669473243E+00 1.324748938153E+01
 2.756651325847E+00 3.951092630387E-02 3.669515418513E+00
 3.800999971121E-02 -2.185357408849E-01 -2.559392805616E-01 4.973650262697E-01
 -9.805296567437E-01 -4.811725786561E-03 -1.194740032044E-01 -1.858844133807E-01 1.010531065511E+00
 5.590745502027E-01 7.983948260449E-02 3.331543250330E-01 -1.256242602726E-02 -2.208654044465E-01 4.608582496366E-01
 3.418476080060E+00 -2.080148788266E+00 3.215985227148E-01 -8.289119765480E-02 -2.436768949625E-01 -8.597045197875E-02 3.479790064902E+00
 3.766068414672E+00 -2.921373532872E+00 3.671475482096E-01 4.216000878404E-02 -8.369800441619E-03 -3.692302283341E-01 2.331021552587E+00 4.191897173693E+00
 -8.287349047523E-01 1.294209162560E+00 -2.635307453144E-01 -3.212298680617E-02 7.814207581901E-02 2.434479716424E-02 -2.468182560048E-01 -1.004968606777E+00 7.726409367161E-01
 -7.247731911300E+00 -1.129196431577E+00 -2.076114107581E+00 1.238938929333E-02 7.397088862248E-01 -7.090961662355E-01 -2.257269341563E+00 -1.842427031055E+00 -1.149459859058E-01 1.037526637070E+01
 -5.719930492391E+00 -1.844948971404E+00 -4.165396603746E-01 4.787973378834E-01 1.747284224268E+00 -1.152727339661E+00 -1.949366359220E+00 -1.434273786228E+00 7.216347495156E-02 1.037739817412E+01 2.642654760032E+01
 -3.698403517266E+00 1.413727086826E+00 -2.042945887150E+00 4.192033663924E-01 6.201247915738E-01 -1.091147342378E+00 2.340103361444E-01 1.032740958492E+00 2.756644588983E-01 -5.466504632072E-01 -3.438022099498E-01 7.549536945819E+00
 1.288676461857E+00 -1.839477334801E-01 9.279329646152E-01 -4.550365602045E-01 5.330294196840E-01 1.380546595221E-01 -5.855556170036E-01 1.642694666353E+00 -3.546661268805E-01 -1.733532586660E+00 1.959948257866E+00 1.962817380382E-01 9.381705233806E+00
 1.360982997469E+00 -1.617356552737E+00 -1.944315750600E+00 -4.255207420964E-02 -7.794683157600E-01 4.616101132865E-01 -9.767888143814E-01 -4.684958316939E-01 1.535749760707E-01 2.464106031953E-01 -1.265862768199E+00 -9.733209337611E-01 2.540409413479E+00 1.378619010237E+01
 -5.032934700766E-01 5.678144807039E-01 -1.657202457336E+00 2.815586490425E-01 -4.324588217256E-01 -1.807402749759E-01 5.000742097531E-01 -1.204340654193E+00 1.843955806994E-02 6.289109788812E-01 -7.887777076261E-01 -2.888468753860E-01 -5.664061660032E+00 -1.071438644469E-01 6.508693911357E+00
 -2.838601473108E+00 2.290358918400E+00 -8.376603314431E-01 -3.760629821942E-01 6.856396432163E-01 2.211989958303E-02 -1.538474483030E+00 -1.366994094283E+00 6.930628442739E-01 -2.170723445339E-01 6.922371547333E-01 -5.001852494618E-01 1.077728080724E+00 2.285101708166E+00 2.078579452860E-01 1.041035677110E+01
 2.853566615372E+00 -4.851650138305E+00 2.567787457962E+00 -3.990578230897E-01 1.087241885437E+00 -7.145206764892E-02 -2.713754651496E+00 -6.255836319316E-01 -1.463629928107E-01 -5.512490038330E-01 1.311150190579E+00 -1.835608094773E+00 3.060146262994E+00 -2.667632375248E+00 -3.112595248293E+00 5.359968528233E+00 1.796203296214E+01
 -3.149767204689E+00 3.477805252082E+00 -8.826755571767E-01 5.044366766355E-02 -3.445679675733E-03 9.796234200303E-03 -8.349829518294E-01 -8.217053312199E-01 3.509017358468E-01 -2.295869345223E-01 -7.468964955545E-01 3.106896317044E-01 -7.855159657597E-01 -5.009688679919E-01 1.031196210280E+00 4.312676114900E+00 3.232518102906E-01 3.329880716439E+00
 -1.283426478694E+00 -1.110423249590E+00 -1.109483418138E+00 -5.720394489525E-02 2.777717962459E+00 -5.277116945918E-02 -3.641693357462E+00 -2.244444338549E+00 -1.889742126618E-03 6.215942693194E-01 3.226492735882E+00 -5.439769648493E-01 1.016062249347E+00 -3.196357645425E+00 2.514590905248E-01 4.336392823947E+00 8.288466466988E+00 1.365784635110E+00 2.579493996402E+01
 -3.697217906556E+00 3.758640089652E+00 1.912142326923E+00 3.654077809790E-01 -3.930236287758E-01 -9.518527387616E-03 -3.922921792639E+00 -9.468556712112E-01 3.556348884856E-02 3.517326491500E+00 2.521381247816E+00 -1.698000774557E-01 9.678542173530E-02 3.933189574557E+00 -3.589507590432E+00 -1.405035686842E+00 5.057813077733E-01 -4.384364514622E-01 -3.148156177619E+00 1.699373976330E+01
 8.109456635729E-01 4.573041430058E-02 1.030956683043E+00 3.881354435290E-02 -2.774267143581E-01 -5.497775961715E-01 -1.473001646239E+00 9.915570670762E-01 -1.397031869129E+00 1.292789857675E+00 -2.309090449222E-02 -5.460458227135E-01 -1.096059393701E+00 -1.576122660782E+00 2.620027445275E+00 -9.414485807936E-01 1.271244374856E+00 5.710377569787E-01 -1.771462260811E+00 1.610100627377E+00 1.233606762678E+01
 -1.612379721393E+00 3.211971433775E-01 1.349159701859E+00 3.913875646443E-02 -3.582814594198E-01 -8.477604871375E-01 2.292523197153E+00 1.727161298413E+00 5.753784858084E-02 3.233925641514E-01 1.078282266704E+00 1.970980047965E+00 -2.202104264595E+00 -1.808168699471E+00 4.302051889819E-01 2.233767900687E+00 2.178606432373E+00 9.042555146873E-01 -5.362852157367E+00 9.963073456922E-01 -1.767073827686E+00 1.173476449508E+01
 1.335433771087E+00 -2.105713425788E-01 -1.439452500134E+00 -3.764839122600E-04 -2.743264622083E-01 3.949042790488E-01 -1.382041261536E+00 -5.100885649826E-01 -1.734615527398E-01 2.605200742966E-01 -8.643629414281E-01 -1.505499224731E+00 1.015975625864E+00 2.031967568080E+00 2.214256893586E-01 2.306219386634E-01 -7.528932808908E-01 -6.079444853184E-03 7.995532695666E-01 -2.222275082422E-02 1.132911112339E+00 -5.316032286844E+00 4.957668145080E+00
 -2.906921449713E+00 -1.707531601498E+00 2.551438071749E-01 -9.802327931198E-01 1.679930411412E+00 5.044548895251E-02 1.228990446482E-01 1.370799058849E-01 -8.249828177259E-01 9.820564270387E-01 -1.972945423707E+00 1.254400404683E+00 3.296326001335E+00 5.329071464177E+00 -2.704660191622E-01 -4.063243837159E+00 -4.367356487866E+00 -1.512333312516E+00 2.124791748529E+00 -1.918467098154E+00 5.231725278028E+00 -5.938512494470E+00 -3.883895313506E+00 3.697500429633E+01
 1.963951898581E-01 -7.029371443582E-01 2.023612171072E-01 -1.486605264134E-01 -5.410559240782E-01 1.264216213885E-01 7.690322956222E-02 -8.063352232151E-01 1.856137993802E-02 2.814774091488E-01 -7.844672428224E-01 -4.403588080548E-01 1.193967999535E+00 1.098221843198E+00 -2.476873244071E-01 -2.072999675141E-01 -9.131120198664E-01 -6.587125678590E-01 -8.375304303463E-01 -2.134723795609E+00 -2.022988686277E-01 -2.615450051268E-01 2.908107716840E-02 1.366992081683E+00 3.290881295326E+00
 -8.984810198035E-01 -1.191976526989E+00 -8.388882337437E-01 2.486329072344E-01 2.789297916325E-01 4.006374282916E-01 -1.557055907255E-01 1.052290766851E+00 -3.766159028596E-01 1.323250687995E+00 8.323796756603E-01 -2.223414338547E+00 1.863910430157E+00 -7.307345264528E-01 -1.611432320312E+00 1.176343890739E+00 2.304427714599E+00 1.142786555087E+00 3.477829342637E+00 -4.760861417301E-01 -6.688227167805E-01 -8.572402627010E-01 -1.052406776389E+00 3.084873871559E+00 -1.595497308072E+00 1.011475791253E+01
 -7.219289156562E-01 -1.436528536118E+00 1.018663153970E+00 -3.788683630828E-01 -3.482523970664E-01 4.663721276608E-01 -1.787566047610E+00 -1.606490109434E+00 -5.464467006337E-01 2.660821724191E+00 7.754121395836E-01 -2.860277939622E+00 3.721506828105E+00 1.059417939256E+00 -1.914467204966E+00 4.631626210578E-01 1.455603764276E+00 -1.156991098179E+00 3.579627311290E+00 -7.365835076733E-01 4.786648589969E-01 -2.284027179039E+00 1.510572561671E+00 6.946366431926E-01 4.874049308602E+00 -5.740514837555E-01 1.165363749889E+01
 7.598300995946E-01 -2.782831352534E+00 -2.945876831881E-01 -3.070752594107E-01 7.957356302472E-01 -3.047455396630E-01 -4.457025029183E-01 1.241961156715E+00 -5.075901353502E-01 2.146825818109E-01 -4.879807919392E-01 1.045695032485E+00 1.494958158271E+00 2.363119057847E-01 -9.675225986936E-01 1.275718044781E+00 2.420842257361E+00 1.801375659959E-01 2.152569082516E+00 -8.900852940156E-01 2.799122052907E+00 -2.070175515251E+00 7.283133025172E-01 4.835994219927E+00 -2.798362563175E-01 5.030313945285E-01 2.238216385763E-01 3.649786274208E+00
 -4.998221392215E-01 -6.015261779822E-01 3.058985114192E-01 -3.029756849481E-01 -5.605044990626E-02 3.429935184523E-01 4.203488214992E-01 1.128694391745E+00 -5.994033539238E-01 -4.760181668306E-01 -3.640344148253E+00 2.819428353447E-01 1.778318707077E+00 7.149589899941E-02 -2.536700780309E+00 -1.072049283975E+00 -1.347935613475E+00 -4.630184616259E-01 -9.948345080580E-01 8.319856342688E-01 -1.177966292277E+00 -1.153159071338E+00 6.943739066307E-01 2.111222149809E+00 5.726999933355E-01 -3.278531795359E-01 1.840993546047E+00 1.019871732282E+00 3.787844813990E+00
 -1.837438738024E+00 3.600719943920E-01 -1.243598803879E-01 -2.783655605375E-02 4.717627564325E-02 1.231552436777E-01 -2.863064966397E-01 -7.935929909639E-01 3.397198547216E-03 7.857143453267E-01 1.762863695179E-01 3.037549847514E-02 -3.987993241052E-01 -1.102399342470E-01 2.744751404625E-01 -2.493037509033E-02 -6.298449197370E-01 1.203961716900E-01 4.651230934857E-01 -1.907376707592E-01 -3.688651504500E-01 -2.759642858981E-01 -5.765951824389E-01 2.216501765047E+00 3.177153091580E-01 6.810734636243E-01 7.002250772235E-01 -3.339617787971E-03 3.752578773462E-01 8.689305736886E-01
 -8.400183055560E-01 1.064309033805E+00 -3.162827144461E-01 -1.052233180528E-01 -4.157840157935E-02 -2.480682043789E-01 -3.172845803484E-01 8.941347076745E-01 -1.882428990461E-01 1.517664205674E+00 1.838606989842E+00 -3.770280259307E-01 1.395590728632E+00 1.196616699509E-01 -1.170844480314E+00 5.984200468790E-01 -4.737084150952E-01 7.880216071760E-01 -5.676160287782E-01 1.786023960100E+00 1.002731496668E+00 4.655674141025E-01 6.920162434326E-02 -3.679279591778E-01 -8.620055401833E-02 1.437607454665E+00 2.447691973830E-01 1.170907063427E-01 2.161556072019E-01 -4.218719309358E-01 2.466071352651E+00
 7.631591227326E-01 -1.685350598424E-02 -7.581414506514E-02 -2.402933495094E-02 1.155049404820E-02 -1.545768698637E-01 6.008156047381E-01 1.406323953696E+00 -3.629035968501E-01 -5.309020243867E-02 -1.072359711500E+00 -3.401361622006E-01 2.822623302480E-01 -5.570675475727E-02 -1.824840768538E-01 1.546509938222E-01 -1.018423901380E+00 4.940754356403E-01 2.577476794635E-01 3.970048849797E-01 1.419356244934E+00 1.240722233157E-01 -2.027374428025E-01 1.497129141063E+00 -3.160088210593E-01 1.505228420564E+00 -1.694261339355E-01 6.424873763914E-01 3.795707585654E-01 -3.127312296971E-01 1.159683100388E+00 1.562762292016E+00
 -1.105366271928E-01 8.325811205149E-01 -3.628305630929E-01 8.963394173452E-03 1.116581257140E-01 -2.612406060403E-01 1.162326292710E-01 2.460955768511E-01 1.264705434710E-01 4.822276847348E-01 1.039320760543E+00 -6.228370412300E-02 2.821933247267E-01 -2.464910020444E-01 3.261262905136E-02 4.766618869466E-01 -3.692841282845E-01 4.031122762983E-01 4.980297671780E-01 -3.323382032933E-01 1.499935121535E-01 4.871626333115E-01 -2.684420976930E-01 -6.934861658334E-01 4.207882314378E-02 9.164857547430E-01 -7.242207162058E-02 -3.138965495540E-01 -8.045729030785E-01 -3.619354766576E-01 9.005244378718E-01 5.881483242544E-01 9.831568800294E-01
 -4.397442876569E+00 4.565932926007E+00 1.187925687311E+00 -1.146675690617E-01 -2.248088628479E-02 -2.037240001546E-01 -1.264393854650E+00 -1.247783068957E+00 1.202018909267E-01 1.574798817269E+00 2.281703501486E+00 3.236192682195E-01 -2.967543768026E-01 -1.011156994016E+00 1.314173533727E-01 3.836086363876E-01 -4.034909591126E-01 7.893101713399E-01 -1.575377509500E+00 3.675912656799E+00 1.497856252426E+00 2.598387317864E+00 -1.432321694355E+00 -6.295089755318E-02 1.313521018483E-01 -1.289293796129E+00 7.137485107312E-01 -1.387431652154E+00 -4.467793499222E-01 3.196223438553E-01 4.749535962119E-01 -2.576056637637E-01 1.372725752244E-01 3.588150289630E+00
 7.259701771664E+00 -1.110227915023E+01 -3.781139022860E+00 3.506923349595E-01 1.726078998195E-01 -5.643155993567E-01 2.707812730717E+00 1.502729953288E+00 -5.780816419050E-01 1.085353206103E+00 4.147175439787E+00 -8.853834067976E-01 -1.109140209518E+00 1.806913301694E+00 5.344068154542E+00 1.153756080666E+00 2.372917052383E+00 -1.125285289502E+00 3.984447029203E+00 -1.411301967504E+01 1.885642991397E+00 -2.078184148168E+00 1.429088780932E+00 1.772936027507E+00 1.586035818594E+00 2.296710027136E+00 4.619781320328E-01 2.305474617726E+00 -3.899742795376E+00 -4.328781777356E-01 -1.065102883614E+00 1.695103245069E-02 8.002797942022E-01 -5.787791169995E+00 2.352863027441E+01
 2.266230275276E+00 -4.818450131950E+00 -1.752475998676E+00 4.502113958173E-01 -6.471077797871E-02 -3.501613783653E-01 6.744718322619E-01 6.908590483745E-01 -2.717767367370E-02 1.773471008901E+00 1.225422442548E+00 4.547864092589E-01 -1.776434099935E+00 1.293665492308E+00 8.460295270682E-01 -8.207247745992E-01 9.373901793464E-01 -1.461393775965E+00 1.906137978289E+00 -8.621619879093E-01 -2.298809775456E+00 1.063014454647E+00 1.655536714624E-01 -4.472079955872E+00 -5.998520709584E-02 9.304149494972E-01 -8.020026266703E-02 -3.697827165785E-01 -1.042845669190E+00 -3.069002230489E-01 -3.426066009554E-01 -9.022944690458E-02 3.107479832336E-01 -2.099011170473E+00 5.690958070366E+00 4.858848796670E+00
 -2.462084900855E+00 4.166159425070E+00 -1.236305822135E+00 -2.697214542810E+00 4.302799083196E+00 -2.949770026465E+00 7.954004695125E-01 1.634704051983E+00 1.452042267877E+00 8.016818506768E+00 5.523172606216E+00 -1.572653642051E-01 5.485489909319E+00 -8.044167948968E+00 -4.041394656623E+00 -2.386878087275E+00 6.830816664682E+00 -2.882220514387E+00 8.905409549595E+00 -2.257038970246E+00 -1.171556526518E+00 4.337229839474E+00 -3.767379620114E+00 2.944319706559E+00 -1.268530669627E-01 4.774460533843E+00 1.107011603088E+00 -1.125590429774E+00 -3.563291528474E+00 -2.410816685390E+00 6.873497599248E+00 3.400883568571E+00 6.231886352695E+00 1.780067641030E+00 2.480140299006E+00 3.215589345839E+00 9.915806950290E+01
 -3.613998040320E+00 -4.123832634342E-01 1.197005582128E+00 6.046934816946E-01 -2.473777108887E+00 1.806213490270E+00 -9.966923408504E-03 -2.106483777206E+00 -6.734222547492E-01 -1.804662333206E+00 -3.164925104521E+00 -1.897403817469E+00 -4.146426793358E+00 -4.096028052867E+00 2.478976556809E-01 -1.377087493916E+00 -3.197858413264E+00 3.086430012529E+00 -3.272893596445E+00 -1.670712679223E+00 -2.128499066751E+00 -1.675059912940E+00 3.879624281086E-01 2.357013915236E+00 6.898420540362E-01 -4.185790131496E+00 -9.777409391651E-01 -2.078212225728E-01 6.600301872260E+00 1.728292535155E+00 -6.207266296658E-01 -1.429943042382E+00 -3.628238274865E+00 1.403676834034E-01 -7.562073973308E+00 -5.754763722705E+00 -4.208084702170E+01 5.556954276878E+01
 5.358698004447E-01 8.585020973393E-01 -1.298352657713E+00 -2.610889375467E+00 4.897358644406E+00 -2.979875184552E+00 2.187933510090E+00 1.326526206918E+00 1.759438147929E+00 5.811340906577E+00 4.075797438748E+00 2.461015928910E+00 4.680524097428E+00 -5.762961773905E+00 -1.994539212878E+00 -7.333431869434E-01 6.477335830901E+00 -5.120351034123E+00 6.361884511186E+00 -6.934171774272E+00 -2.592033753042E+00 4.526838030021E+00 -2.733647450523E+00 -1.665964190014E+00 1.393350630636E+00 1.513791915904E+00 3.496237026380E+00 -3.238089267795E-01 -5.471176523968E+00 -2.006711173467E+00 1.704195709671E+00 9.617997498813E-01 5.112542107388E+00 2.043193237216E-01 9.065397330218E+00 6.098583349535E+00 8.674237406517E+01 -6.102219574644E+01 1.011922912447E+02
 6.549552261526E-01 3.244090748013E+00 -1.120217497427E+00 -7.181274089121E-01 2.872148935782E-01 -1.891793484748E-01 -1.269680344166E-01 3.774203749697E-01 -4.195414721460E-01 1.330226985920E+00 1.984210780098E-01 -1.481651161178E+00 1.980417240913E+00 1.299109818344E+00 1.546797090967E+00 -3.940694033889E+00 -7.601748772977E+00 -9.161103077444E-01 -4.318013156776E+00 -1.466525535953E+00 7.227213256884E+00 -8.075248135395E+00 4.334719169695E+00 8.869207231825E+00 5.223477398495E-01 -1.500737928456E+00 6.072721708993E-01 1.481608150433E+00 6.069809291268E-02 -5.934180493670E-01 1.665791728531E+00 1.382566108544E+00 9.316179423882E-01 -2.490947504156E-02 1.900688265896E+00 -3.108223937231E+00 1.138496005286E+01 -6.593019674948E+00 9.870165149459E+00 1.687636087393E+01
 2.285530865796E+00 -7.503062234101E-01 9.441300799417E-01 2.621196410831E-01 -1.055097372905E+00 -3.931278799186E-01 4.267686283210E+00 3.313130899001E+00 -1.065158111158E+00 2.102184830983E-01 -3.783804840592E+00 1.029102356543E+00 -4.624272980827E+00 -2.239736413034E+00 1.686965171351E+00 -8.136387892401E+00 -1.134702147586E+01 -3.515844261789E+00 -5.641298300972E+00 1.475277139630E+00 -1.881317831820E+00 4.506733729003E+00 -1.839417556677E+00 -4.005412736575E+00 1.507687769670E+00 -4.296379937714E+00 1.918273616232E+00 -3.215370914807E+00 2.357412628216E+00 -1.368292598951E-01 -2.843499664589E-01 1.242851290319E+00 4.865446686598E-02 9.384374795064E-01 -4.061597288818E+00 2.557210031537E+00 1.852273501424E+00 -1.708756980338E+00 4.679807991463E+00 3.266085605516E-02 2.134561546952E+01
 1.687989619415E+00 -4.585351316247E-01 7.441865722843E-01 3.925416800868E-01 -2.337662482499E-01 4.161926902200E-01 3.164090836626E+00 -2.256215614624E-01 1.129972345571E+00 -2.185677184375E+00 6.560819906510E-01 -9.543578964756E-01 -3.547538894037E+00 -4.943335951501E-01 1.609078987831E-01 7.854049918857E-01 -2.712442731803E+00 1.037176897840E-03 2.018775721374E+00 -1.128577215846E+00 -1.058652812924E+01 6.080821804115E+00 -4.299450543865E+00 -6.634141457824E+00 -4.421548538494E-01 1.024588350776E+00 -2.453193752375E+00 -4.156418740039E+00 -8.380663108069E-01 3.092089295554E-01 -8.400834612926E-01 -3.164732856791E-01 3.865962952793E-01 -7.034276769413E-01 -1.255561766493E+00 3.011834568659E+00 -1.867332894640E+00 2.754074044505E+00 -1.645682996386E+00 -1.031935936371E+01 6.784897184968E+00 1.629948814031E+01
 -3.284733063448E-01 1.037406112761E+00 1.021540100776E+00 1.662971435544E-01 -1.327434848523E+00 1.005975100435E-01 -1.417381935973E+00 -2.306880432682E+00 1.016799914409E+00 2.337550191582E+00 2.635892232060E+00 -1.761585283931E+00 2.349725437226E+00 -1.233238132067E+00 -3.382715710537E+00 -1.190573302561E-01 1.007191694989E+00 -1.347060054233E-01 -1.865029635217E+00 2.127810130002E+00 -1.515863340659E+00 4.056203731269E-01 -5.159268652438E-01 -5.276644843491E+00 4.117715814355E+00 1.751859295606E-01 7.062102692486E+00 -1.840482835364E+00 -3.675074107612E-01 -1.234673059274E-01 2.576859291240E+00 1.380455446279E-01 1.404102792249E+00 8.215793522871E-01 -1.628626306428E+00 4.260732126869E-01 9.005719296799E+00 2.914297654654E-01 4.422198785340E+00 -1.004567393973E+00 -1.148870044458E-01 1.677608044030E+00 1.535490664402E+01
 6.019349277469E-01 1.230675468689E+00 1.280919452437E-01 -2.306258431086E-01 -1.671088624560E+00 1.105000989393E+00 -5.521955435138E-01 -6.135424479210E-01 2.864156599339E-02 -1.345651338142E+00 -1.389219027553E+01 -3.313862849674E+00 -1.793442976845E+00 1.154946809990E+00 -7.327631506381E-01 5.393954057297E-01 -8.132503231645E-02 1.034026596892E+00 -2.880301399682E+00 2.708384589227E+00 -8.254075093778E-02 -5.847992896638E-01 9.293643381940E-01 -1.808810441955E+00 1.173651586466E+00 3.788717193467E+00 3.339225380276E+00 -5.433965683791E-01 2.403742223565E+00 4.971339814975E-01 5.231147005312E-01 1.203905973480E+00 -9.170889272460E-02 -6.645053680513E-01 -4.493579563524E+00 2.866344584120E-01 -2.666024845506E-01 9.795906859829E-02 -1.332730949088E+00 -1.084012441991E+00 2.204602186227E+00 6.310367328195E-02 3.989060697562E+00 1.451465162155E+01
 4.116394629489E-01 1.051404274443E+00 8.645077357883E-01 -4.670013570616E-01 -5.154146202788E-01 8.764150837739E-01 -5.250328430004E-01 -7.536947270475E-01 -1.346116543470E-01 6.250530932473E-02 -3.584688812675E+00 -4.115003217935E+00 1.338131119198E+00 1.320664477852E+00 -1.094818362395E+00 6.206295214010E-01 -4.717319561538E-01 2.865324936831E-01 -1.001511934999E+00 5.438572535773E-01 1.181683986190E-01 -2.252081711187E+00 1.474365538770E+00 1.220754415071E+00 1.334433606072E+00 2.008889888621E+00 3.768894355142E+00 -2.453153318904E-01 1.499246145562E+00 3.706900852083E-01 5.541806252258E-01 5.164026866731E-01 -5.861325208063E-02 5.716390729142E-02 -2.142965155874E+00 -1.341315014336E+00 3.750200789579E-01 7.573636662626E-01 -6.005888318742E-01 2.311527631438E+00 -2.178538924624E-01 -1.079199405975E+00 2.131995696846E+00 5.565637519293E+00 4.642030086943E+00
 2.196083655346E+00 -2.479869951001E-01 -1.903891331286E+00 1.984727216394E-01 -1.021124211275E-01 -2.988065198284E-01 -5.218798878471E-01 -1.859236576078E-01 6.578283073037E-01 -8.912596083588E-02 -2.552673577627E+00 1.341876066683E+00 -2.040998149380E+00 -4.872274079340E-01 3.138417461296E-01 -7.173086513808E-01 -2.301607659799E+00 3.453076585401E-01 -1.305194729285E+00 7.541208024548E-01 1.739942194955E+00 -4.760918418157E+00 3.426436540905E+00 -3.382579846050E+00 -7.096085143481E-01 -2.215056604825E+00 -2.356546748410E+00 1.752356779080E+00 -1.108975989868E-02 -9.798869428780E-01 8.255415590614E-01 5.842326407441E-01 3.868541027797E-01 -2.503983512001E+00 1.436457411656E+00 9.570174112816E-01 1.419618606244E+00 -7.179041051066E-01 1.241686909849E+00 4.901199939201E+00 -1.059569683985E+00 -2.981703677743E+00 2.354467855136E+00 1.600572865485E+00 -4.407265276520E-01 9.561838012001E+00
 1.191336812871E+00 1.328078405347E+00 -9.800898767420E-01 4.776114022700E-01 -3.468344695488E-01 -9.106085678534E-01 2.217210512751E+00 2.685172143893E+00 3.455600559851E-01 -5.727584814228E+00 -8.146595741734E+00 7.643534536566E+00 -6.426887089719E-01 -2.055257663593E+00 -2.961685086791E-01 -1.093409187934E+00 -1.869755773157E+00 2.946660945534E-01 -3.184984800962E+00 -1.462342396603E+00 -1.342171342006E+00 3.868000373708E+00 -2.050863533778E+00 -2.896627906999E+00 -4.914565357738E-01 -3.112277172999E+00 -4.597790112229E+00 3.573959286853E-01 5.761516122675E-01 -7.319554237808E-01 -6.623082415277E-01 1.826265394225E-01 -3.563125851894E-04 -7.225323969846E-01 -1.604286268926E+00 7.251247561807E-01 -1.091893018469E+00 -1.556181764646E+00 1.813730260244E+00 -3.210339740570E+00 3.912281626270E+00 1.560122430229E+00 -1.246439905427E+00 -4.409504178622E-02 -4.045301853126E+00 2.581146288615E+00 1.217937709462E+01
 3.203475872012E-02 -1.847714042477E+00 4.111766950485E-01 4.108000119034E-01 -1.315712025915E-01 2.533616537542E-01 -1.745678627112E+00 -1.660065578353E+00 -4.939342913460E-02 4.582082754839E+00 8.358526657848E+00 -3.855244391110E+00 -6.927064912032E-01 -2.033138754434E+00 -2.923492975122E-01 -1.573681713924E+00 1.637281670612E+00 -8.944962032520E-01 2.633455816809E+00 2.336080013261E+00 5.608866264259E-01 -2.749126902663E+00 1.571125632249E+00 -4.533585791071E+00 -3.476806619069E-01 2.471641492849E+00 2.026197586614E+00 -9.343411600081E-01 -1.403473761875E+00 3.354297144690E-02 7.839194763083E-01 -3.150950980081E-01 4.022594672378E-01 -8.847883206077E-02 1.494594905806E+00 1.344859731261E+00 1.216929851257E+00 6.203120466968E-01 -1.335909377086E+00 5.013662597864E-01 -1.390964939156E+00 1.568102871017E-01 4.001545306429E+00 -9.006956243089E-01 7.157091725680E-01 7.810875922537E-01 -6.241239014363E+00 7.368580120996E+00
 -1.786770687544E+00 3.242252222971E+00 -8.470672770972E-01 -1.317023553689E+00 2.303833373582E+00 -1.869018481318E+00 1.083743786331E+00 2.827496069043E-01 3.606164003668E-01 1.952178773587E+00 -6.443091141489E-01 2.173265513777E+00 2.667302644924E+00 -4.811279637851E+00 1.206213175865E+00 -1.065749107225E+01 3.219468419025E+00 -5.723411844731E+00 1.130665527893E+01 -4.325799621938E+00 -2.248083674061E+00 4.077215037518E+00 -6.377192351473E+00 1.235032394132E+01 6.923288568852E-01 3.158186540773E+00 1.837847647119E-01 -4.986911541974E+00 -3.978758428971E+00 -3.525473991884E-01 1.397654215701E+00 4.201170071411E-01 3.273750866585E+00 2.953180784501E+00 3.138887191463E+00 3.363890435157E+00 6.998154297110E+01 -2.870271478831E+01 5.949961624750E+01 5.047878248142E+00 6.757815571318E+00 9.194460242088E-01 1.784304020672E-01 -3.145060116620E+00 -2.552121611054E+00 -8.865354237512E+00 1.935450355654E+00 -1.945327793640E+00 8.414045377709E+01
 -2.706007984704E+00 1.814252123011E+00 2.184031576144E-01 2.049424605666E+00 -3.914965909061E+00 2.641641195441E+00 -1.401610983726E+00 -3.179561789144E+00 -4.077510244896E-01 -5.917633248046E+00 -6.571441966739E-01 -1.800986792359E+00 -3.024967320583E+00 7.082535171713E+00 3.436742797314E+00 2.732594734594E-01 -6.782792641007E+00 5.179586855798E+00 -7.372902520310E+00 1.679524008987E+00 1.528533433281E+00 -4.645461849158E+00 -6.259243587614E-01 1.455016621584E+01 -1.736948428000E+00 1.643285565957E+00 -8.051411229880E+00 -7.429614824074E-01 1.584344966954E+00 2.520437915238E+00 -1.559836266559E+00 -1.619382857180E+00 -3.805271644815E+00 2.681708429714E-01 -3.747762748991E+00 -7.596284139221E+00 -6.881624932134E+01 5.344851095130E+01 -8.592310383469E+01 -5.301358128478E+00 -1.265146804555E+01 1.599878922389E+00 -5.041633238472E+00 -3.220492167412E+00 -6.725988595237E-01 -3.615655519506E+00 -2.882978467915E+00 6.408080882017E-02 -3.851026279238E+01 8.904183501076E+01
 3.715495994636E+00 2.254309125795E+00 -3.705404670316E+00 -1.698158812000E+00 2.998673460660E+00 -3.227137291085E+00 1.872156065204E+00 2.797559522408E+00 1.324682429153E+00 3.214638547253E+00 -4.353731753030E-01 4.243861222411E+00 7.611292298988E-01 -8.131398179519E+00 1.064768070956E+00 1.227231263152E-01 6.519742047146E+00 -4.502933349136E+00 2.850909258350E+00 -5.828062607873E+00 -2.975483934454E+00 6.189607782330E+00 5.155379703800E+00 -3.395110979965E+01 -4.060771708758E-01 -6.766711793769E+00 1.643539426863E+00 -3.079188387778E+00 -5.095158056384E+00 -4.584730035281E+00 7.328492940282E-01 -5.917516007779E-01 4.293742804023E+00 -3.201269342373E-01 7.768978054537E+00 9.578137223066E+00 7.442845997624E+01 -5.851691089467E+01 9.435970534129E+01 7.458954559379E+00 1.163136607714E+01 -3.435683424126E+00 1.022984904170E+00 -8.019517629797E-01 -2.911790898336E+00 6.357462600201E+00 7.791571812530E+00 -9.449608561401E-01 4.695373075281E+01 -9.565232130114E+01 1.297410002596E+02
 1.002694337832E+00 -1.071997541803E+00 -4.108626822850E-01 -1.029072140100E+00 1.276004913608E+00 6.535715546057E-02 -1.143222127462E+00 -9.995275991968E-01 -9.830138041023E-02 1.804744612826E+00 -2.326936655814E-01 -3.186365584219E+00 -1.886916220229E+00 4.807186129775E+00 2.360314556608E+00 2.051525649348E+00 1.993584861257E+00 -2.893502953688E-01 3.911120569743E+00 1.627340376662E+00 1.699617552103E+00 -2.472194503035E+00 2.341975413879E+00 4.388676074384E+00 -1.776345757465E+00 -2.410138851462E+00 -1.726239746045E+00 1.436004794686E+00 -3.591678623622E-01 -4.794925600747E-01 -5.250986204852E-01 5.411140004333E-02 -3.675737526265E-01 -3.658907472495E-01 1.163545452914E+00 4.592044291127E-02 6.469338447977E+00 -3.328121727718E+00 5.790499553852E+00 4.099515157117E+00 -2.298310559001E+00 -2.480275210942E+00 -6.843663007181E+00 -1.076321776454E+00 8.129316252016E-01 6.757877422475E-01 -5.025710470054E+00 -3.976324672135E-01 3.699213623071E+00 -4.623202867377E+00 6.114955230288E+00 1.221425826260E+01
 1.387238624196E+00 2.444441029922E+00 1.335568223049E+00 -6.186422616047E-01 6.687732731807E-01 1.411519428506E-01 4.680312544393E-01 -1.757486345940E-01 2.093060029379E-01 -4.156524748388E+00 -3.130469349690E+00 4.392479399186E-01 -2.788408778624E-01 -2.591383993195E+00 5.783066415956E-01 -3.030047212851E-01 7.866004614461E-01 3.240981158008E-01 5.644770849634E-01 -2.273624836169E+00 9.770657079361E-01 -1.644651485919E+00 7.351272101668E-01 2.036338834172E+00 -1.432281244496E+00 -4.178567394364E+00 -3.740494533677E+00 7.057208252706E-01 6.020289231859E-01 -5.078888301155E-01 -1.216123102325E+00 -7.381110686858E-01 -8.068836440858E-01 2.992040366535E-01 -2.652858944530E+00 -3.302225412074E+00 -9.408332925053E-01 6.643662452551E+00 -2.801839629681E+00 2.803878129776E+00 -2.289076035285E+00 -2.011020367684E+00 -4.888511549591E+00 -3.378585068383E+00 -1.002875185663E+00 1.018161812287E+00 1.572305457472E+00 -2.520165327727E+00 8.350579791570E-01 4.714391698143E+00 -4.836649492636E-01 3.620316858762E+00 7.617452796785E+00
 2.643199009513E+00 3.025298054799E+00 1.908755722762E+00 3.517428076623E-01 -1.030912151386E-01 -2.646167460767E-01 -4.917556903032E-01 4.627109789960E-01 3.069558911151E-01 -4.498411055662E+00 9.824898918162E-01 2.171336468109E+00 1.757674576215E+00 -1.718359350579E+00 -1.094869753608E+00 -8.963444912799E-01 1.219360437189E+00 5.569833458192E-02 -5.590031830236E-01 2.438199127225E+00 2.029282505491E+00 -1.942440979783E-01 3.484660227640E-02 -3.036865817181E+00 -1.145071014598E+00 -3.322038074843E+00 -3.110189686226E+00 -2.823896538773E-01 -1.373570082690E+00 -1.099947237259E+00 1.204340578709E-02 -4.148463584207E-01 3.465198751728E-02 1.095724134423E+00 -3.613744723226E+00 -2.157278017223E+00 -2.870323634536E+00 3.955968529669E-03 -3.775280352029E+00 8.058017545949E-01 -1.898381484231E+00 -1.364827390568E+00 2.548019273388E-01 -4.629547216070E+00 -2.547395946126E+00 1.623907430504E+00 3.848183801788E+00 -7.149378639860E-01 -9.529751555721E-01 4.202777819028E+00 8.838376051589E-02 -1.885621770148E+00 3.635882161032E+00 7.614036944651E+00