#BIOSYM hessian 1
@Type: Hessian Update
@Units
 distance: 	A
 energy: 	Kcal/Mol
#header
@natom 19

#label
L1      L2      L3      L4      L5      L6      L7      L8      L9      L10     L11     L12     L13     L14     L15     L16     L17     L18     L19

#element
Li Li Li Li Li Li Li Li Li Li Li Li Li Li Li Li Li Li Li

#matrix
57
 8.591479628706E+02
 -2.604705890243E+00 2.736561134431E+02
 -2.965049585054E+02 5.986433606730E+01 1.162239792837E+02
 -3.119103731056E+02 2.560599458195E+02 1.643473567100E+02 8.145173222916E+02
 2.720090460375E+02 -1.697255049449E+02 -1.306891394621E+02 -1.079371079635E+02 2.858304346865E+02
 1.716290459694E+02 -1.169612164556E+02 -8.166802688487E+01 -2.945284912601E+02 6.716665257371E+01 1.856441433666E+02
 -5.943339452080E+00 -9.069112559502E+00 -3.040425499336E+00 -4.829590395967E+02 -1.424412331261E+02 1.222866693273E+02 8.843476958229E+02
 1.011573449113E+01 5.802238448297E+00 -1.322463793632E+00 -1.537304199756E+02 -1.040181186247E+02 8.263994271057E+01 2.360493344750E+02 1.614983771268E+02
 -4.401222043107E+00 -9.866675732567E+00 -6.621201205897E+00 1.031286779588E+02 8.699600425001E+01 -1.636783243181E+02 -2.186583515847E+02 -1.500389589113E+02 3.452515184835E+02
 -5.432434073916E+00 -2.454237337317E+01 -1.856873474562E+00 4.951423029278E+00 1.656153116352E+01 1.758733252150E+01 -3.960795448209E+02 -9.613165626096E+01 8.853799453520E+01 4.309862878425E+02
 -1.114962078018E+01 -5.131646030879E+01 -7.060151349613E+00 -1.070575674909E+01 7.060212551994E+01 -4.052948138643E+01 -5.365961279595E+01 -6.862975928477E+01 1.191507719537E+02 -7.547684834575E+01 3.868586813707E+02
 3.695960520049E+00 5.893546917298E+00 2.971361025176E+00 1.683640294454E+01 -2.103526042749E+01 5.547127392381E+01 1.049170185982E+02 7.124877642267E+01 -1.608290310393E+02 -1.524708581377E+02 4.580935765771E+01 1.356971103693E+02
 -3.831084347350E+00 -3.931121067376E+01 -6.749987619179E+00 7.147693123335E+00 4.109102521288E+01 -7.921116706359E+00 -1.253721993129E+01 -6.722195425840E+00 2.795102210286E+01 -7.083825171559E+01 9.211107924443E+01 3.020066586893E+01 2.084236286613E+02
 2.207852476480E+00 5.928267042381E+00 -2.972900146349E-01 1.637826891277E+01 -8.971254162980E+00 2.774813746307E+01 -3.935650445766E+01 -3.618470807042E+00 -5.318797122640E+01 1.615417414130E+02 -3.818169331001E+02 -9.942954784246E+01 9.143533497361E+01 7.719259141115E+02
 1.444823524942E+00 1.323906910289E+01 2.099074860275E+00 -2.074058574671E+00 -1.358310969135E+01 4.224345191292E+00 -4.239882990902E+00 -1.729431263523E+00 -1.028028579850E+01 5.684394212656E+01 -1.029431924212E+02 -3.804223760519E+01 -3.964373451881E+01 1.044686390900E+02 7.011149818630E+01
 -5.325143014806E-01 -1.491277951823E+00 -5.436449570435E-01 2.254679628546E+00 9.587372728483E-01 2.833271482437E+00 7.598766545328E-02 2.612213466749E-01 -5.118476007365E+00 6.022927884315E+00 -1.066599708670E+00 2.148324227042E+00 -1.828573638386E+02 -2.148530434683E+02 -8.060792767131E+00 3.686352470081E+02
 7.546178868095E-01 2.612670282813E+00 7.788041740236E-01 -3.262310126717E+00 -2.052548509302E+00 -3.877929028251E+00 2.989626083448E+00 1.816605254082E-01 6.359901017058E+00 -5.479904252610E+00 -7.591744132110E-01 -2.750197668101E+00 -2.075519110402E+02 -3.829712348090E+02 1.901848145564E+01 4.167315796359E+02 6.852688418897E+02
 8.449300817204E-01 4.003757288998E+00 6.852630068838E-01 2.438373946050E+00 -3.953964937115E+00 2.132908621710E+00 2.146915035109E+00 2.772765200222E+00 -7.193854366728E+00 -2.797909497353E+00 -5.961212399487E+00 7.338739519991E+00 -7.472930096282E+00 2.594760875295E+01 -5.944289393300E+01 4.674108739944E+00 -5.891721696514E+01 1.181274983862E+02
 -1.838760806895E+00 -1.203980008234E+01 -1.464083574652E+00 1.252166524796E+00 1.277666717079E+01 -3.390133268372E+00 3.595916904577E-01 -4.306654093925E+00 7.937138957645E+00 -6.268399155353E+00 -8.671845920635E+00 -4.692263751220E+00 5.326310638067E+00 -6.457308273843E+00 1.531576693618E+01 -2.001827435595E+02 -1.996535507293E+02 1.755476832648E+00 5.150120139817E+02
 1.138553003296E+00 9.762008238333E+00 1.456333738142E+00 -2.902833970806E+00 -1.071860335427E+01 1.264916843288E+00 1.679325855736E+00 3.625470914329E+00 -3.476902444971E+00 3.847184135034E+00 5.877475089132E+00 1.897351334566E+00 -8.978992988128E-01 5.786245263704E+00 -8.178722783585E+00 -1.963970105598E+02 -3.055490280877E+02 3.738600382232E+01 3.905590110996E+02 4.278036199230E+02
 9.391108186227E-01 5.842181135028E+00 8.936641679393E-01 -3.499068099992E+00 -5.927340245563E+00 -1.488693358315E+00 7.725637583167E-01 7.572541087529E-01 2.725262322545E+00 2.875117869163E+00 7.903110324812E+00 -2.628490859850E+00 1.687907183581E+01 -8.984294296199E+00 3.015441066160E+01 2.458999872045E+00 3.986779162205E+01 -7.172395643135E+01 -9.258278044232E+01 -7.863686508671E+01 7.158015267136E+01
 1.610304170173E+00 1.212714445714E+01 2.140800655300E+00 -5.833722612641E+00 -1.209596732792E+01 -3.018554126216E+00 4.494853781809E+00 2.320776036916E+00 4.013173948916E+00 4.591191143372E+00 1.102884999236E+01 -2.255091311266E+00 8.933123366108E+00 1.799273390551E-02 -4.284036196373E+00 4.698109076781E+00 -3.770923114421E+00 1.225694299526E+00 -3.275993900331E+02 -1.863282339278E+02 7.844419409400E+01 6.210867309115E+02
 3.751211861449E+00 1.979401315299E+01 2.914604822620E+00 -5.022180042172E+00 -1.955387664892E+01 -5.814619288939E-01 2.822618027777E+00 5.429978840276E+00 -2.395604780701E+00 6.774802924841E+00 1.337696721849E+01 1.298958471919E+00 1.284287280225E+01 -1.262315179961E+00 -4.088047292951E+00 -5.186157205820E+00 4.222431585577E+00 5.711145945981E-01 -1.752351547186E+02 -1.379128647031E+02 4.049912408320E+01 2.195164747034E+02 1.474492348499E+02
 -1.538840232050E-01 -1.717021070228E+00 -4.580437419260E-01 1.362856393544E+00 1.559342408136E+00 1.491904953902E+00 -1.335136862643E+00 8.235236263242E-02 -2.495546949956E+00 -5.475225756243E-01 -2.445082871963E+00 1.222919170620E+00 -3.277329433828E+00 1.485532396055E+00 -2.846872101844E+00 2.570954012046E+00 -8.889794401158E-01 1.058854271185E+01 7.960200906759E+01 4.525200965350E+01 -3.517525085110E+01 -1.759795656976E+02 -5.489855117329E+01 6.776168798547E+01
 8.899716569715E-02 -1.127951646062E+00 -4.513367721964E-01 3.936228282275E+00 7.368037855926E-01 6.840159081748E+00 -4.862628056624E+00 1.738718713148E+00 -1.072832369181E+01 8.809291981402E-01 -2.769464047846E+00 5.170781045765E+00 -2.908154020080E+00 -1.191823470864E+00 3.068250337658E-01 -1.393626350239E-01 7.790233661994E-01 4.212908883034E-01 2.011150137031E-01 -2.733911378653E-02 1.554679392984E+00 -2.972982928171E+02 -3.958365867221E+01 9.367295080961E+01 6.085595822285E+02
 1.080688038011E+00 7.674379936627E+00 1.161431796155E+00 -2.948828363673E+00 -7.946000927385E+00 -2.044535549254E-01 -9.313814733577E-01 1.756677528340E+00 -2.525948697018E-01 4.590786605571E+00 8.280708687318E+00 4.345647436303E-01 6.367302162842E+00 -2.162848793505E+00 -2.657617945226E+00 5.498637732112E-01 -3.743588906803E-02 -2.214631935258E-01 -6.860139340274E-01 4.235873199536E+00 1.657401686446E-01 -3.848925689562E+01 -3.056667681291E+01 1.127837273875E+01 -1.716649122862E+01 5.032497491509E+01
 2.335364218693E-01 1.994893870591E+00 4.396201964836E-01 -1.212990296008E+00 -1.559447320274E+00 -2.812244886932E+00 4.201250660804E-01 -6.683571299332E-01 4.200374339101E+00 7.931048081090E-01 3.579906456268E+00 -1.666738390848E+00 2.937891327067E+00 -9.328408329446E-01 -9.127050984864E-01 -6.131959254342E-01 5.301168416571E-01 -1.024737330625E+00 2.037707098909E+00 -4.908983041155E-01 4.069856279599E+00 9.325288354284E+01 1.102074165686E+01 -4.509577221031E+01 -2.072367649693E+02 6.414362535785E+00 1.161440369881E+02
 -8.644879641439E+00 -2.394651182631E+00 4.093019922228E+00 -7.531876091185E+00 2.790724146059E+00 -5.512902323482E+00 -9.818499097240E+00 -5.341263399554E+00 1.511488926298E+01 7.154713595648E+00 2.129561984257E+01 -4.082347689083E+00 1.048710702708E+01 -1.675245915797E+01 -4.756059709137E+00 -6.378502105267E+00 7.964513246873E+00 -9.646066568846E-01 8.854980420809E+00 -4.870625076286E+00 -4.278355473756E-01 -2.127048865401E+00 -7.635365072460E-01 1.564267060451E+00 -3.120974224395E+02 5.760455927891E+01 5.205060594811E+01 1.070260111386E+03
 5.428643983911E+00 5.862354752884E+00 -1.386471714327E+00 2.411092356379E+00 -5.554621395459E+00 1.079058313549E+00 8.221843555242E+00 3.369906284589E+00 -6.579969948888E+00 -2.618717133643E+00 -8.525065546281E+00 1.304785939795E+00 -3.464880603288E+00 9.672000596925E+00 2.067873033256E+00 3.686813806965E+00 -4.904081138976E+00 1.533519040201E-01 -4.390368278428E+00 2.086207153738E+00 -2.079633051991E-01 -4.306947284818E-01 4.967022846635E+00 -1.595498870281E-01 6.008306260143E+01 -3.679442372767E+01 1.529952401843E+01 -4.317822411222E+02 2.466996531985E+02
 -2.379823763297E+01 -1.592182874623E+01 9.064969190175E+00 -1.256338451340E+01 1.478240870520E+01 -5.944908783689E+00 -3.558804243986E+01 -1.485714884033E+01 3.139907327709E+01 1.624870607863E+01 4.998251220550E+01 -6.317453933687E+00 2.263802676172E+01 -4.674542608875E+01 -1.175975239625E+01 -1.765632437257E+01 2.409770777347E+01 -1.046896124221E+00 2.335014847523E+01 -1.219776218950E+01 -4.162520144729E-01 -2.601819663796E+00 -1.200800507306E+00 4.404254498970E+00 1.084119535761E+02 -8.732436705002E+00 -2.458532351190E+02 1.323877362984E+03 -8.686152079743E+02 4.732544016257E+03
 1.645914966842E+01 9.151420245510E+00 -6.815576578550E+00 1.070835555790E+01 -9.004700499995E+00 7.119657517216E+00 2.266740214555E+01 1.088157618289E+01 -2.661764375140E+01 -1.233388597875E+01 -3.787720701261E+01 6.901744555901E+00 -1.886094182131E+01 3.142996876229E+01 8.729863838857E+00 1.196575259032E+01 -1.570498955837E+01 1.300257180936E+00 -1.685401977209E+01 9.258021357211E+00 3.271814755635E-01 3.943452735698E+00 2.080758537408E+00 1.406672550997E+00 4.937318910179E-01 -3.874282915553E+00 1.123235531673E+02 -1.257289262770E+03 6.710777186332E+02 -2.936311294589E+03 2.496795003625E+03
 -9.572417162334E+00 -6.104673735908E+00 3.640980342079E+00 -5.484721309033E+00 6.129919525890E+00 -2.815037499439E+00 -1.374359612025E+01 -5.622485688756E+00 1.292889840667E+01 6.257074992320E+00 1.988680380101E+01 -2.689007099743E+00 9.212416645154E+00 -1.878546042911E+01 -4.734177938310E+00 -7.190430424937E+00 9.531455296304E+00 -4.179184512014E-01 9.412452819540E+00 -5.065001394526E+00 8.381515983389E-02 -2.298262120125E+00 -2.602060139393E-01 -4.908631021600E-01 7.034526393905E-01 8.580096648741E+00 -6.595006031105E+01 6.559259416809E+02 -3.898511866943E+02 1.740470779588E+03 -1.306312694743E+03 7.453887846618E+02
 4.663585625937E+01 2.878802313407E+01 -1.841171180543E+01 2.506513093000E+01 -2.804156231287E+01 1.455018424907E+01 6.829456624461E+01 2.999223538863E+01 -6.448795027409E+01 -3.246749609292E+01 -1.006494483777E+02 1.353096218172E+01 -4.569647461382E+01 9.234029223384E+01 2.340219056737E+01 3.525398511524E+01 -4.742357266641E+01 2.418675784860E+00 -4.698562770999E+01 2.475368012951E+01 -7.098853261879E-01 1.041392039406E+01 2.067506098918E+00 4.545198845647E+00 2.421273573614E+00 -1.672343858001E+01 3.201864826857E+02 -2.780588739730E+03 1.690818210187E+03 -8.711568130595E+03 5.506579918095E+03 -3.265668476141E+03 1.638048702552E+04
 -7.318232641975E+00 8.383657852088E+00 6.030545979747E+00 -1.364282518878E+01 -8.777849392176E+00 -9.713744748084E+00 -6.107427462708E+00 -5.329275990116E+00 2.385500431411E+01 1.308058176407E+01 3.645142452674E+01 -8.950077894088E+00 2.205763611618E+01 -1.670996276725E+01 -8.794790128505E+00 -4.355636197780E+00 6.418851467721E+00 -1.674265619904E+00 1.257786552920E+01 -7.582722049649E+00 -2.490807729300E+00 -5.382649134038E+00 -7.536232351500E+00 -4.727535607826E-01 4.393945443884E-01 -7.503754809313E-01 -5.300991152751E+01 4.940025635713E+02 -2.955975124194E+02 1.489777489573E+03 -1.232653454229E+03 6.424742616560E+02 -2.703726947360E+03 7.905432026190E+02
 6.814537662252E+00 7.568184022731E+00 -1.910547410914E+00 6.588667855564E+00 -8.201044813470E+00 7.491327605842E+00 3.193740604822E+00 7.253401604510E+00 -1.987863213865E+01 -2.870584724128E+00 -1.402628076621E+01 8.459002181773E+00 -5.243899915117E+00 9.830418827009E+00 2.123920757038E+00 2.733677692863E+00 -3.545918911399E+00 1.594831964147E+00 -5.501548053403E+00 2.435397812454E+00 -1.997503786087E-01 9.133244405536E-01 1.556792953947E+00 3.809534307067E-01 1.101782420247E+00 -1.916009038558E+00 3.021285702971E+01 -2.831924813988E+02 1.734843978608E+02 -8.565050674777E+02 6.371501806535E+02 -3.622971869216E+02 1.580472012111E+03 -4.240758889724E+02 2.896972792887E+02
 -2.282078566320E+01 -1.691767886698E+01 8.324549729620E+00 -8.788315661877E+00 1.661588259386E+01 -3.880624143993E+00 -3.602193483980E+01 -1.381935729688E+01 2.529525294039E+01 1.398930848685E+01 4.342891047294E+01 -3.238387829184E+00 1.850334132984E+01 -4.514322344747E+01 -1.022677541770E+01 -1.818798163641E+01 2.410893760466E+01 -5.638024785039E-01 2.172561256560E+01 -1.134682188307E+01 1.052667978820E+00 -4.697144869764E+00 1.438505776862E+00 -3.626557966921E+00 1.852529483953E+00 7.400255865045E+00 -1.487370031710E+02 1.410772383402E+03 -8.417343844123E+02 4.242486338125E+03 -2.698262950644E+03 1.600970448396E+03 -8.036048331702E+03 1.235801829810E+03 -7.086753423401E+02 3.993595006572E+03
 6.956533016797E+00 1.845415431988E+01 7.329571518645E-01 6.421788486097E+00 -1.886477497490E+01 1.071705443572E+01 -3.542707705629E+00 1.149274739323E+01 -2.738537877279E+01 1.872443030372E+00 -3.808700424060E+00 1.439258523914E+01 2.691625214821E+00 1.044181561505E+00 -1.985374632596E+00 -1.160006600009E+00 2.026084472502E+00 2.779786672076E+00 -5.713068797586E-01 -1.407133314662E+00 -1.232655570614E+00 -3.251510315182E+00 9.445374080443E-01 4.035077501351E-01 4.505630458116E+00 -1.645674360133E+00 -1.359862702161E+00 -4.889195418149E+00 1.572178329929E+00 -8.461879105926E+00 1.130974507470E+01 -2.658615877069E-01 1.623808051177E+01 -7.595657381090E+01 7.892177813676E+01 3.630369050433E+01 1.317993207551E+02
 -1.280701019187E+00 -7.005973666349E+00 -9.103755615056E-01 8.842274333912E-01 7.615012327989E+00 -1.542782766354E+00 4.284716433815E-01 -2.582998709773E+00 4.272788131461E+00 -2.725185368736E+00 -3.795932193330E+00 -2.291380033253E+00 -4.033728181116E+00 7.248757498780E-02 1.674674296606E+00 -3.765481370708E-02 -1.815499560489E-01 -4.254223550962E-01 -9.655977867840E-01 1.036903921761E+00 8.692524951708E-01 1.260682883961E+00 1.435804220379E+00 -1.529146680427E-02 -4.186694321895E-01 1.103917780398E+00 3.572330905366E-01 -2.962592183604E+00 2.541454119231E+00 -1.049638035221E+01 6.828785178557E+00 -3.239905748093E+00 2.036474450312E+01 7.149714998392E+01 -9.516465152640E+01 -6.057293933313E+01 -3.381228246313E+01 1.263725096427E+02
 -2.196831678912E+00 -7.893448801622E+00 -6.743169617174E-01 -2.074780651729E+00 8.236176562576E+00 -3.890889340490E+00 2.443880396763E+00 -4.009286014999E+00 9.894063854917E+00 -1.958056136164E+00 -7.679207849145E-01 -5.380611777860E+00 -2.581307368672E+00 2.319958066708E-01 1.381121153510E+00 6.330416781883E-01 -1.176788672009E+00 -1.051454375607E+00 -5.139684505945E-01 9.808197956402E-01 6.663716155504E-01 1.164265016662E+00 1.969574400004E-01 8.715651534009E-02 -1.816835776476E+00 1.407761405932E+00 7.023555690169E-01 -4.924620991768E+00 3.395240245608E+00 -1.818306956297E+01 1.085510774989E+01 -7.989093616091E+00 3.566367806451E+01 3.756804588221E+01 -4.706215431907E+01 -4.589920234024E+01 -5.670873710937E+01 3.986430945416E+01 3.127535687174E+01
 -1.074616238972E+00 7.969223305829E-02 6.103419093145E-01 -1.790047589366E+00 -4.438680644818E-01 -1.793476124632E+00 -3.664412370613E-03 -1.645480561375E+00 4.096383308717E+00 1.765706298640E+00 4.398739863170E+00 -2.008304128447E+00 2.061444817111E+00 -9.847935291020E-01 -7.949432047810E-01 1.568622077413E-01 4.196913665669E-02 -4.142113417591E-01 1.190168525584E+00 -4.299294960299E-01 -1.746917252997E-01 8.923678147347E-02 -1.290658330302E+00 -2.805697052824E-01 -8.276233761015E-01 -7.385767299327E-01 1.761037529332E-01 1.459131333830E+00 -7.480987378235E-01 4.219971136759E+00 -3.328919773256E+00 1.551880623923E+00 -8.265532216202E+00 2.747857388940E+00 -2.700725730016E+00 3.286403740416E+00 -5.805421528949E+01 -3.831787508275E+01 1.401323960740E+01 1.255162056801E+02
 -1.034657265113E-02 2.501466016634E-01 -4.229520818138E-02 -5.202767399948E-01 -7.357505665702E-02 -7.492660278438E-01 6.606751604050E-01 -3.287521035597E-01 1.266606245906E+00 8.226357574111E-02 6.488298872719E-01 -7.624671306510E-01 2.302358493948E-01 1.227477901377E-01 -1.071288330320E-01 3.100565868948E-01 -2.350756849721E-01 -1.045206024414E-01 1.170630817690E-01 -2.434798799116E-02 -4.120345093773E-02 -2.386443989816E-02 -3.232953586526E-01 1.088889238276E-01 -3.139991750317E-01 6.586073141258E-02 2.606554971012E-01 -8.260686580732E+00 4.660428471576E+00 -2.273675662483E+01 1.552595624211E+01 -9.296458551329E+00 4.452378034042E+01 -7.604409463682E+00 3.600280135972E+00 -2.230212178622E+01 -3.949228968336E+01 -3.190677245739E+01 9.655639651926E+00 7.870871162410E+01 5.865001454205E+01
 -5.712556063469E-01 -1.383327706690E+00 2.352849305677E-01 2.859908113881E-01 1.536482226779E+00 -7.131012999725E-01 -9.938309117899E-01 -1.117859269051E+00 1.626715583786E+00 6.771983148968E-02 2.388349434459E-01 -7.363749074857E-01 -6.600239997527E-03 -2.433290760433E-01 6.622704897559E-02 -1.365951655045E-01 3.210279867723E-01 -1.113984985427E-01 2.196182905131E-01 -4.952967018822E-02 9.731949336351E-02 6.460421966893E-01 7.425201722980E-02 -2.319302992126E-01 -3.802940910319E-02 -3.265378904195E-01 -7.254707898420E-02 -3.927996704967E-01 3.576058337951E-01 5.470893638265E-01 -8.479364232169E-01 -2.781830220581E-02 -3.278811508385E-01 1.472471769567E+00 -1.594606990040E+00 -4.744751126689E-01 9.797026867222E+00 9.800344608691E+00 -3.799791577100E+00 -3.234215861542E+01 -2.093534310246E+01 1.300927681914E+01
 2.204094018576E+00 2.171276070209E+01 3.950442145744E+00 -9.643826280614E+00 -2.192789829294E+01 -4.933170413875E+00 5.861140988663E+00 3.141235121354E+00 6.858300314908E+00 9.981586541291E+00 2.361470736752E+01 -3.292354615486E+00 1.735433078165E+01 -2.649912256116E+00 -6.562336473447E+00 1.380749606604E+00 -9.297729709525E-01 -7.615961444212E-01 5.892313233676E+00 -4.412119076308E+00 -3.252882255113E+00 -5.813928716986E+00 -8.563688015793E+00 1.017305307225E+00 4.041333458978E-01 -4.390031622184E+00 -5.829767455190E-01 -8.632815617119E+00 3.770939505179E+00 -2.094463003797E+01 1.488424014961E+01 -9.298621999486E+00 4.107276056071E+01 -1.405678476865E+01 3.742427465313E+00 -1.857275019023E+01 -5.000910754104E+00 3.053508500017E+00 2.730736986253E+00 -7.267474778684E+01 -3.997778237962E+01 2.145061691577E+01 4.120210585337E+02
 -5.295902964858E+00 5.062390744362E+00 3.459606360070E+00 -2.169377545677E+00 5.100252761528E+00 -2.647331323385E+00 1.494794865920E+00 -3.015531067648E+00 7.773998762896E+00 -1.235167820271E+00 -3.409544285126E-01 -4.067597205891E+00 -1.318254720280E+00 2.123671176015E-01 1.011181353080E+00 1.769717059544E-01 -7.194756448920E-01 -8.573027525681E-01 -2.806514491870E-01 6.423132485798E-01 4.425449359545E-01 1.009435873074E+00 1.938660125200E-01 -2.204525565007E-01 -1.059502685634E+00 8.834785325828E-01 1.096331836178E-03 1.811687177597E+01 -1.053069019621E+01 4.992200803907E+01 -3.531385015859E+01 1.996901132958E+01 -9.709737408998E+01 2.005151315583E+01 -1.170781837882E+01 4.667133710414E+01 -4.883320080335E+00 6.923840616818E-01 4.800816189145E-01 -3.708478131933E+01 -2.780636208068E+01 1.243681863371E+01 3.958595098633E+01 4.211324499756E+01
 -1.876903441987E+00 -6.218525707911E+00 -8.834722737430E-01 4.032671554845E+00 9.515031116903E+00 1.812031315871E+00 -4.125446906026E+00 -1.897247461296E+00 -1.499327316916E+00 -3.566629012748E+00 -7.488391278364E+00 1.186781219626E+00 -5.356423243948E+00 -3.376945215497E-01 2.022328943425E+00 -1.285388030373E+00 1.398468513799E+00 2.981168115673E-01 -1.462686358691E+00 8.860485262680E-01 1.200615569315E+00 1.929745912934E+00 3.066656026787E+00 -4.786822231570E-01 8.916080571078E-02 1.143177305072E+00 1.600812681983E-01 5.989866057302E+00 -2.680610609209E+00 1.805086204557E+01 -1.264680465252E+01 6.963079932231E+00 -3.494780136096E+01 9.003117865934E+00 -2.984200991830E+00 1.663299969410E+01 2.076294679312E+00 -1.547963214485E+00 -7.821101676953E-02 2.078284771112E+01 1.131147338285E+01 -9.020285480159E+00 -1.373442467524E+02 -7.773253850595E+00 4.943584058389E+01
 -5.393704767131E+02 -2.334840527523E+02 1.352541404407E+02 -1.736027441089E+01 -2.483119225326E+01 -7.602394407902E+00 3.923579508328E+00 -2.472074310758E+00 1.028627691798E+01 9.056416795186E+00 1.473563250740E+01 -5.971653136348E+00 6.920487392911E+00 -4.378424055590E+00 -1.176061607484E+00 3.375010081027E-01 -1.372551575609E+00 -3.357291749876E+00 2.225718033363E+00 -1.219293227879E+00 -5.739739320833E-01 -2.015623032470E+00 -5.074503348094E+00 5.034845182170E-01 -1.074684548249E+00 8.048112489947E-01 -4.477647947678E-01 2.474116660384E+01 -1.603268149887E+01 6.902006312662E+01 -4.775572033219E+01 2.837547360284E+01 -1.327061440323E+02 2.423604327250E+01 -1.714608316295E+01 6.430672987889E+01 -1.214508138753E+01 2.410017429516E-01 2.968993173106E+00 2.592787680943E+00 5.350119904053E-01 1.334225834901E+00 -3.538230007049E+02 7.966701915337E+00 1.236773187141E+02 8.989089596820E+02
 -2.726460316237E+02 -1.091010225424E+02 7.019448853230E+01 1.362903423500E+01 -3.848662556601E+01 -1.691868704739E+01 1.579551669251E+00 -4.212245038311E-01 5.219534208260E+00 1.075347450746E+01 2.220503493832E+01 -2.426568285180E+00 1.476987993802E+01 -3.566652270989E+00 -5.402178553138E+00 6.983433691256E-01 -9.479485219443E-01 -1.359492821199E+00 4.918371599713E+00 -3.945061387525E+00 -2.435984423637E+00 -5.026746625223E+00 -8.271877198107E+00 8.399245032097E-01 7.291749358461E-01 -3.226488818773E+00 -8.295352134297E-01 -9.667840602052E+00 3.770271980230E+00 -2.133500485262E+01 1.555233057949E+01 -9.568778291813E+00 4.330547292404E+01 -1.220489970852E+01 2.928715833565E+00 -2.058059975841E+01 -7.695602303527E+00 2.392769006637E+00 3.416518201623E+00 -7.412748008133E-01 1.825216020021E+00 8.037881428166E-01 -6.936910338621E+00 -2.132225904813E+01 -3.197034694927E+00 2.519137790635E+02 1.651916482820E+02
 1.271249012932E+02 5.714066715348E+01 -3.236977108174E+01 6.897683624496E+00 -1.872802209987E+00 -6.036349662576E-01 2.673973760523E+00 2.607847156640E+00 -4.231850006929E+00 -1.415651952045E+00 -2.689743470181E+00 1.928753346023E+00 -6.295022509252E-01 2.742638437652E+00 3.466998735301E-02 9.863802619665E-01 -1.356723423019E+00 6.953413310493E-01 -9.266827758524E-01 6.060385750944E-01 -3.308614494849E-01 -5.920679071128E-01 2.210726449408E-01 4.167877882484E-01 -4.547327995407E-01 2.516102426101E-01 3.672166498361E-01 -1.189549585064E+01 6.727138672286E+00 -3.838916090459E+01 2.681909686221E+01 -1.468218132963E+01 7.327947598896E+01 -1.568757090860E+01 9.153822010203E+00 -3.504191097276E+01 5.375879552585E+00 2.963897510344E-01 -1.372063655667E+00 -1.302993504880E+00 5.316691444652E-01 -1.721629857358E-01 1.188575635338E+02 -9.943879981266E+00 -4.381622377700E+01 -2.555986310505E+02 -4.930469402420E+01 7.978878913859E+01
 -1.574466570479E-01 4.104775162581E-01 1.910687243107E-01 -3.432861329160E-01 -5.473216860725E-01 -5.503329133737E-01 5.294496358122E-02 -3.591238035974E-01 9.644907960827E-01 6.776340868643E-01 1.814790243052E+00 -4.556692924802E-01 6.801002800400E-01 -6.715051603514E-01 -3.712579188580E-01 9.089051223921E-02 3.250094614894E-03 -1.399930323107E-01 5.071852959850E-01 -1.055607170878E-01 -4.318235515109E-02 -2.570427141754E-01 -6.444768111401E-01 -3.003386774011E-02 -8.756947848476E-01 6.535688500420E-01 4.374755608048E-01 -4.977250874401E-01 -4.524607958811E-01 -3.372929927216E+00 2.419264070626E+00 -1.260105293103E+00 5.567655432898E+00 -1.505843955444E+00 3.599505886213E-01 -2.681534986581E+00 -8.835856022197E-01 2.987204590298E-01 4.057941514023E-01 1.516318218117E-01 6.767804952869E-02 -6.490734000940E-03 -5.596098037998E-01 2.060973464838E-01 9.008867553841E-02 2.211490604649E-01 2.012851372064E-02 -2.356642118403E-02 2.409584336373E+00
 9.717710191335E-02 4.143428546438E-01 3.498597098082E-02 -6.560007768042E-01 -9.921933382762E-01 6.595332911023E-01 1.559975556195E-01 6.929537532028E-01 -1.106859156924E+00 2.475229884815E-01 1.807425776730E-01 5.321823161776E-01 1.432917775959E-01 -2.339460482857E-01 -1.233470801292E-01 -1.027478192450E-02 1.090029206450E-01 5.737326004847E-02 7.979774501539E-02 -5.183147656673E-02 -5.156035447157E-02 -2.460901645537E-01 9.380609838118E-02 8.807515844286E-02 -2.679627836204E+00 1.296406895236E-01 9.952492855598E-01 1.666696098747E+00 -1.504938421215E-01 -4.855365576003E+00 2.735348460275E+00 -1.320581406104E+00 7.053680044786E+00 -2.114587596200E+00 1.206008662155E+00 -3.079134200733E+00 1.002156116927E+00 -4.065189895655E-02 -2.642879196929E-01 -1.520407155959E-01 -7.193597480086E-02 -1.719603068116E-01 -1.462276259795E-01 -2.529127957343E-01 -2.622932749237E-02 -2.356257525390E-01 -1.784385157029E-01 2.605454494077E-01 -1.289786006081E+00 6.042279691575E+00
 1.525597706857E-02 7.256193821984E-01 1.860782783196E-01 8.333818259460E-01 -5.916637643118E-01 4.571314300445E-01 -1.698432724050E-01 4.016742337085E-01 -1.474526318037E+00 -5.642519601442E-02 -5.663346628243E-01 6.002519272215E-01 -2.477484763549E-01 2.924383458477E-01 9.840546247917E-02 3.262042945236E-02 -3.281958363228E-02 3.259178562644E-02 -1.429702349020E-01 -4.225622741068E-03 7.050942265853E-02 -3.714855122272E-03 1.498702405412E-01 7.116774343472E-02 2.384007526566E-01 -3.568791208356E-01 -2.068337509030E-01 -4.606611383566E+00 3.015165102634E+00 -1.261702573476E+01 8.764814993909E+00 -5.213594537387E+00 2.511738238775E+01 -4.385609873080E+00 2.732951799583E+00 -1.238680796160E+01 4.776542694764E-01 -1.505775377358E-01 2.787278416250E-02 -1.341458670655E-01 4.415449815009E-02 -2.549265983773E-01 7.697506004730E-02 -5.646355414512E-02 -2.704646436204E-01 -6.283899866264E-01 -3.435792447516E-01 5.459742552330E-01 6.545162427006E+00 -3.551288352745E+00 2.080395477606E+01
 -2.287279295143E-01 -2.263733607938E-01 2.039679063704E-02 8.607953177298E-02 -1.332533578544E-02 7.977688357458E-02 7.678361970596E-02 2.093661120390E-01 -1.979160398094E-01 -3.492119313520E-01 -8.672627235971E-01 9.408147762425E-02 -4.835734866383E-01 1.113407789256E-01 2.071727054374E-01 -1.945558362399E-02 4.423924023858E-02 4.939739655035E-02 -2.294194910512E-01 1.320952299200E-01 3.849438568498E-02 1.542225071998E-01 3.416616602594E-01 7.443047795879E-03 3.794370024265E-01 8.606828226001E-02 -1.117573954823E-01 8.761419878939E-01 -6.068612313153E-01 3.031160572576E+00 -2.122962616227E+00 1.246573475947E+00 -5.771086768377E+00 1.147070185552E+00 -4.269530126457E-01 2.855051031102E+00 3.983227590854E-01 -9.684608865894E-02 -2.232987081599E-01 -2.479393961299E-02 -5.422180662897E-02 5.004376550057E-02 3.472127626026E-01 -8.694968694163E-02 -5.488252094933E-02 -5.237599529505E-03 2.399682734449E-01 -7.773242601624E-02 -1.057837962946E+00 -8.298750856832E-01 -3.394204997963E+00 1.073647522446E+00
 -4.135082813262E-01 -4.213515239176E-01 8.210997543073E-02 -3.815801470906E-01 2.756003251856E-01 -4.983841857699E-01 8.644117250114E-02 -4.837344055448E-01 1.156482551795E+00 1.830061818110E-01 5.739971211389E-01 -5.739743291001E-01 1.341856558361E-01 -1.286177220643E-01 -2.872828979077E-02 3.218654561804E-02 -1.009835747376E-02 -1.087605193832E-01 1.308738385897E-01 -8.967726414793E-03 1.777525055117E-02 1.510297295161E-01 -1.465346934010E-01 -8.859254531092E-02 3.569375119644E-01 -1.580396137950E-01 -1.482498116883E-01 9.552247979610E-01 -7.539006300008E-01 4.101230005120E+00 -2.852338496522E+00 1.630673086279E+00 -7.727555123866E+00 1.725305659435E+00 -1.368186712982E+00 3.581280601575E+00 -1.206316693585E+00 2.457472630903E-01 3.990522333407E-01 1.924032771125E-01 4.460806098734E-02 1.308179569498E-01 1.865387484934E-01 3.028887056248E-01 9.811979560666E-03 7.024537649778E-01 2.559488691462E-01 -3.211277052912E-01 -8.294400590376E-01 -8.534483182724E-01 -2.982275628826E+00 8.287645830296E-01 8.981080888865E-01
 2.090363180004E-01 -5.962562600504E-01 -2.246839126861E-01 1.028708447475E-01 1.048471508467E+00 -5.670668265790E-01 2.109316525449E-01 -4.585290046114E-01 1.210940175573E+00 -5.995801456600E-01 -7.597096554816E-01 -5.204629456387E-01 -2.586450230683E-01 4.289807376018E-01 2.227718937215E-01 -1.833431175848E-02 -1.000805135858E-02 3.865633099341E-03 -2.227282290674E-01 3.884022924048E-02 6.410093167189E-04 2.235650568369E-01 1.960840351105E-01 -5.919744261508E-02 -1.978349817979E-01 8.195920142364E-02 1.290312136799E-01 4.047599950498E+00 -2.405121709115E+00 1.176622382151E+01 -8.347867821008E+00 4.840949600789E+00 -2.297247310726E+01 4.795956101531E+00 -2.600282320031E+00 1.107354433921E+01 -4.093377075301E-01 -4.298837160793E-02 -1.108813764028E-01 1.516911261059E-01 -1.842021987144E-02 2.880999593691E-01 5.003400485351E-01 5.626263644438E-02 8.614866826762E-02 -1.790928259084E-01 1.258702988201E-01 -3.969968563180E-01 -3.438639045073E+00 -2.884913603434E+00 -1.150221308603E+01 3.449264336864E+00 2.933164663502E+00 1.161523407038E+01