#BIOSYM hessian 1
@Type: Hessian Update
@Units
 distance: 	A
 energy: 	Kcal/Mol
#header
@natom 14

#label
L1      L2      L3      L4      L5      L6      L7      L8      L9      L10     L11     L12     L13     L14

#element
Li Li Li Li Li Li Li Li Li Li Li Li Li Li

#matrix
42
 3.594550458421E+01
 -9.743102886382E+00 2.430285146391E+01
 -2.681386890533E+00 1.761536183801E+00 5.002852324440E+00
 6.145687508185E+00 -2.701386062914E+00 2.150507385759E-01 3.924040493048E+01
 5.660491309993E+00 -1.675579690778E+01 -2.392681539489E-01 1.514622915395E+01 2.993335324245E+01
 5.976266821181E-01 -7.399227983814E-01 2.322433499357E-02 -2.243978328852E+00 -1.156081339472E+00 6.155860339240E+00
 -3.024341753520E+00 1.932472672083E+00 -1.946115636216E-01 -1.673352086094E+01 7.522774004722E-01 -7.927774926911E-02 2.994530514053E+01
 8.741939448719E+00 -5.160790902917E+00 4.370237352737E-01 1.257657880802E+01 6.447380412071E+00 7.621390828569E-01 -2.917234900205E+01 1.136787901001E+02
 2.330076320538E+00 -1.587597456617E+00 5.050089450379E-02 2.793693239218E+00 1.769020065040E+00 2.327650843639E-01 3.035562033797E+00 -1.260289549291E+01 1.898658446929E+01
 -9.891580956788E+00 5.251149336770E+00 -1.364058993642E+00 -1.038010462432E+01 -6.861623708373E+00 -2.180698141290E+00 4.182433724166E-01 -1.587390154196E+01 -7.546682279796E+00 1.764011694567E+02
 -7.951444848038E-02 1.996783858343E-01 1.352776118414E-01 -4.303721949763E-01 4.468757448324E-03 -3.118126465129E-01 -7.067974038707E+00 -1.072121873644E+01 -1.309060967297E+00 1.138325147120E+01 2.158888765704E+01
 5.093186520112E-01 -3.019401057145E-01 -1.959192709032E-01 6.149867076959E-01 4.461860025431E-01 -2.207726283747E-01 -8.160012369580E-01 1.964960491928E+00 -8.749114908925E-01 4.202160596000E+01 3.250163918561E+00 3.402724405839E+01
 -1.338350638391E+01 -4.161921485533E+00 -1.406825528136E-01 -1.224854706747E+00 -1.092180559567E+00 -1.909680918588E-01 7.385880419776E-01 -1.017836406987E+00 -5.494033033144E-01 -3.525635378768E+00 7.869934413397E+00 1.893063041050E-02 2.126150775186E+01
 -1.499268443513E+01 4.303554464032E+00 -3.319259031131E-01 -1.039775495531E+01 -7.655162287231E+00 -1.179298168797E+00 4.434119738702E+00 -1.401065320958E+01 -4.842695409014E+00 2.291766481088E+01 -8.202809841689E+00 -1.403029144493E+00 9.993367121504E+00 9.253872151164E+01
 -7.044389181992E-01 3.750541616170E-01 -8.995316051914E-02 -6.307686717848E-01 -2.523117698535E-01 -1.422239694781E-01 1.243549095467E-01 6.377725305943E-02 -2.564857422727E-01 -5.019249714602E-01 3.584637512018E-02 -3.591305063449E-01 1.921102551476E+00 1.692252383566E+01 1.430749042031E+01
 2.608636826520E+00 -1.580457580538E+00 8.836709698206E-02 2.783997647117E+00 2.053187050247E+00 2.725436830882E-01 -1.447732412627E+00 4.106597673533E+00 1.094769921645E+00 -4.802512359246E+00 -1.142341643180E-01 9.953034623396E-02 -5.608311686121E-01 -4.570364974571E+00 -2.798402077590E-01 1.858144976119E+01
 -2.984597268557E+00 1.809047013729E+00 -1.070069451886E-01 -3.171291248430E+00 -2.345471512327E+00 -3.181491988401E-01 1.556249980144E+00 -4.620370506268E+00 -1.166620317233E+00 5.370173046809E+00 1.220782813700E-01 -4.285665101813E-02 6.436942661772E-01 5.251321142493E+00 3.587482720882E-01 -1.163428761647E+00 2.043208884610E+01
 8.652656200712E-01 -5.139448368766E-01 4.506319865591E-02 9.324834221439E-01 6.708321913348E-01 1.040292265486E-01 -4.183924353333E-01 1.479024292562E+00 3.022795401859E-01 -2.146396222783E+00 -6.817373027408E-02 -1.700273030276E-01 -1.522326109498E-01 -1.570863994851E+00 -1.619093606550E-01 2.741148041532E+00 -8.701233522115E-01 2.903641648374E+00
 7.610965257473E+00 -4.666625053825E+00 3.005111304816E-01 8.028876631433E+00 5.966441782282E+00 9.030794341856E-01 -3.809148210503E+00 1.040638801871E+01 3.680535071410E+00 -9.949807225839E+00 -1.563910940361E-01 1.584407069589E+00 -1.709414761546E+00 -1.266918395017E+01 -4.294510809816E-01 3.702814365365E+00 -4.221998164530E+00 1.196537017443E+00 6.083299025706E+01
 4.428757274641E+00 -2.700248705072E+00 2.001215496814E-01 4.698052857993E+00 3.450015462532E+00 5.323793209077E-01 -2.182179160940E+00 6.104933771353E+00 2.122393216934E+00 -6.411285439401E+00 -7.861535295321E-02 8.326303702591E-01 -9.385663377062E-01 -7.501559053663E+00 -3.024770212917E-01 1.848945479899E+00 -1.626657975979E+01 3.671298623900E-01 2.268104781272E+01 3.075581376644E+01
 1.454798836278E+00 -9.196717127341E-01 7.751717925794E-02 1.486064726622E+00 1.139407212232E+00 2.240825600797E-01 -6.174540512899E-01 1.483131312356E+00 9.013004547073E-01 -5.254841929070E-01 7.185286657341E-02 7.644598588707E-01 -2.978957440807E-01 -2.204765049451E+00 2.081152055708E-02 7.511122540213E-01 -1.074906587866E+00 2.203326268539E-01 1.947693098223E+01 1.017664164504E+01 1.977077109014E+01
 -2.306814936714E+00 1.536115539042E+00 -2.076251287156E-01 -2.448528441877E+00 -1.793987647239E+00 -4.947055565640E-01 7.361916511078E-01 -1.636165222270E+00 -2.036754819159E+00 -1.306264886385E+00 -5.362244817577E-01 -2.223530592438E+00 2.494883593802E-01 2.913409891195E+00 -5.159432415150E-01 -1.033092649627E+00 1.575776323910E+00 -3.419220459904E-01 -1.547745685600E+01 3.181761287431E+00 -1.744613689622E+00 3.783567647758E+01
 8.541868612578E+00 -5.591200040936E+00 5.980785365048E-01 8.801905357158E+00 6.565501980409E+00 1.429387861352E+00 -2.925595639220E+00 6.375492952676E+00 6.180011603573E+00 4.723956166067E-01 1.118870113778E+00 6.301345316287E+00 -2.074021176254E+00 -1.295594089252E+01 1.040683514058E+00 3.660324724424E+00 -5.243195254119E+00 1.380939375894E+00 1.385033320464E+01 4.044437881823E+00 1.619193007201E+00 -4.874362144525E+01 1.585298254974E+02
 -3.522957898600E+00 2.035385123552E+00 5.158985674140E-02 -3.708590787797E+00 -2.842490778884E+00 -1.842736323175E-01 2.333556499847E+00 -8.058794820446E+00 -9.497863209332E-01 1.143625761141E+01 6.970301649337E-01 2.020610445423E+00 1.052462548226E+00 6.818742012589E+00 9.993078864603E-01 -1.716529472940E+00 1.637523724277E+00 -4.622620654700E-01 -7.472165408712E+00 -2.543593128100E+00 -1.533317084194E+00 -1.615065697961E+01 3.420729400810E+01 5.370963969114E+01
 -8.687705199508E+00 5.360161746721E+00 -2.917797226830E-01 -9.135903316949E+00 -6.841322460243E+00 -1.003300647823E+00 4.332290886090E+00 -1.209831164780E+01 -4.177738304015E+00 1.172057228905E+01 2.142963025159E-01 -1.512545618561E+00 1.927041542334E+00 1.452739819294E+01 6.197967188501E-01 -3.979563695219E+00 4.724619533252E+00 -1.308304840302E+00 -1.125065251568E+01 -6.254793307228E+00 -1.752995555744E+00 -2.196120748582E+00 -1.826109810620E+01 5.561687833533E+00 7.547582793651E+01
 -1.011202754756E+00 6.210157978446E-01 -4.783613312320E-02 -1.103457968346E+00 -7.822458540720E-01 -1.135765938623E-01 4.311377732837E-01 -1.399065400859E+00 -4.808622954217E-01 1.267984983064E+00 1.005516925243E-02 -3.968206517259E-01 1.976354179181E-01 1.719866717008E+00 1.609865205039E-01 -4.466960489945E-01 5.347989459287E-01 -1.990545831280E-01 -1.541124511063E+00 -8.323370874006E-01 -1.417055514984E-01 -6.953518582738E+00 -1.043729537573E+01 1.375873062052E-01 7.457113032172E+00 1.968283929818E+01
 -2.560027297997E+00 1.556460188295E+00 -1.785124170452E-02 -2.697375316695E+00 -2.054330278572E+00 -1.841953411740E-01 1.525882575128E+00 -4.509987756914E+00 -8.149623126691E-01 5.883227777986E+00 9.714357343340E-03 -1.248360229830E-01 6.147593467293E-01 4.724478297269E+00 3.854090991265E-01 -1.227342188618E+00 1.274262382908E+00 -3.722746434894E-01 -3.813117630790E+00 -2.135170166918E+00 -7.646563876417E-01 7.841445909535E-01 -6.074591854357E+00 1.094897682550E+00 6.724595053321E-01 -2.627044998652E-01 1.619139172388E+01
 -4.983443536067E-01 3.052242561539E-01 -3.232687823145E-02 -5.391280421939E-01 -3.825344385337E-01 -6.684059107686E-02 2.405183859227E-01 -6.122929309031E-01 -2.607109064788E-01 7.445872030157E-01 -1.617335581564E-02 -6.548932561911E-02 8.069645006491E-02 8.286716701201E-01 6.453438798567E-02 -1.287060985682E+01 -3.684936195192E+00 -1.420668535634E+00 -5.857246987616E-01 -3.590558114129E-01 -2.768209829973E-02 1.286983646719E-01 -3.454493598125E-01 3.718848487476E-01 -3.681887928257E+00 6.660270417112E+00 -3.840413810639E-01 1.804520259060E+01
 -4.195828456382E+00 2.552292268145E+00 -1.158645939815E-01 -4.461163376516E+00 -3.321265652373E+00 -4.147443892687E-01 2.309055810628E+00 -6.649873376394E+00 -1.663791758360E+00 7.525809539003E+00 1.974181320565E-01 -1.500422803687E-01 9.526184682373E-01 7.354039192116E+00 4.519945276272E-01 -5.808366859036E+00 9.551550342062E-01 -1.060598173673E+00 -5.744460725544E+00 -3.387861116191E+00 -1.143466781459E+00 1.901738992767E+00 -6.882847256442E+00 2.457672970151E+00 1.308469346184E+01 -8.522669933409E+00 2.710296229572E+00 -4.898268436153E-02 2.160435335831E+01
 -8.411922687053E-01 5.039305246040E-01 -2.998756239674E-02 -9.098947502275E-01 -6.651344564713E-01 -8.254060950463E-02 4.881220138514E-01 -1.495078180083E+00 -2.746871072135E-01 1.989802493089E+00 7.348901270265E-02 1.095724820043E-01 1.677500405217E-01 1.539625369630E+00 1.553280817357E-01 -1.736104980449E+00 2.328975189206E-02 -2.748577230096E-01 -1.223941793772E+00 -7.604782044034E-01 -2.372871402696E-01 5.172017649970E-01 -1.867912268898E+00 2.259174135265E-01 7.280693741249E-01 9.722423865422E-01 3.218444611401E-01 1.631905733848E+00 4.572843842152E-02 2.821779256706E+00
 6.381972222746E-02 -4.676511619247E-02 -3.319200762884E-02 7.352991462101E-02 1.085952515677E-01 1.756784061360E-02 -3.830157175990E-01 5.821094149067E-01 2.105955486149E-01 4.134799605606E-01 2.902980304863E-02 2.621770259149E-01 9.218318264136E-03 3.899504522524E-01 1.732208778060E-01 -1.397122007805E+00 1.058564486094E+00 9.810373539406E-01 -6.729440021810E+00 -3.715319164138E+00 3.862340027713E+00 4.868757744541E-01 1.263982299531E+00 -4.704490913191E+00 -9.365752281361E+00 -6.023762478593E-01 -8.657126713154E+00 -8.242292716508E-02 -6.413889813959E-01 -3.558982129015E-01 1.897091523100E+01
 -4.251224679580E+00 2.613174600552E+00 -2.580650354638E-01 -4.361086828298E+00 -3.205151106987E+00 -5.633833791176E-01 1.277866555562E+00 -4.261230108650E+00 -2.234477761358E+00 4.345454397424E+00 -1.022408301853E-01 -1.047976272162E+00 9.318279260914E-01 7.643302406105E+00 4.401692591583E-01 -8.557712615898E-01 1.530625152147E+00 -1.500519460175E+00 -9.008937208631E+00 -5.090336950590E+00 1.463729305687E+00 5.798513107300E+00 -2.623688331906E+01 1.801638929229E+01 5.591357078920E+00 8.381319490213E-01 1.441995059139E+00 -1.582969276216E-01 6.927272744125E-01 -1.109473728253E+00 -4.057729657700E-01 2.777459375072E+01
 1.405243579829E+01 -8.547714016215E+00 4.113219541131E-01 1.481739881117E+01 1.108991577594E+01 1.475961883468E+00 -7.486368856804E+00 2.145470456185E+01 5.917382480419E+00 -2.375539574015E+01 -5.468640757524E-01 9.185625291999E-01 -3.176160644431E+00 -2.420876129998E+01 -1.267026138640E+00 7.470964860540E+00 -8.147002530869E+00 1.588079510736E+00 2.299802830596E+01 1.334519924869E+01 1.407826764854E+00 -9.355950824370E+00 3.783225004816E+01 -2.056746168136E+01 -3.048995377154E+01 -3.018547456188E+00 -1.378649024229E+01 -1.636113910590E+00 -1.219776165924E+01 -3.236149076764E+00 4.574063796620E+00 -2.613620709358E+01 8.278748362316E+01
 1.160961846055E+01 -7.572484837134E+00 1.243272492014E+00 1.159921319157E+01 9.472469950037E+00 2.147281317786E+00 -6.740308433057E+00 1.648440952716E+01 2.765482449574E+00 -2.901248305534E+01 -1.250958001294E+00 -1.211919420353E+01 -4.612821492207E+00 -2.220564147956E+01 -6.398900761546E-01 1.146925216444E+00 -3.107339939841E+00 -5.511599340812E-01 -1.644455683096E+01 -9.579820392059E+00 -1.391468401189E+01 -2.807332459771E+01 8.188987792301E+01 1.859115384125E+01 -6.328489526264E+01 -5.938549367439E+00 5.192282133398E+00 -1.907007453440E+00 -1.000641020981E+01 -6.727361091517E-01 -9.030091666539E-01 -8.038873469223E+00 3.086851498356E+01 1.775681265008E+02
 3.865769118510E+00 -1.773778497570E+00 -1.187638737729E+00 4.026638256852E+00 3.256375101719E+00 8.952081336916E-01 -3.372925739350E+00 6.650286184464E+00 6.379213388083E+00 -2.336533426680E+01 -2.181463979301E+00 -6.512158774624E+00 -7.396635038217E-01 -1.261996987447E+01 -8.250079274689E+00 4.919847884491E+00 -4.122356182189E+00 1.923968523602E+00 -9.998920065176E+00 -5.747202484466E+00 -7.768927426030E+00 3.530666957084E+01 -9.626697361459E+01 -4.109666179319E+01 -1.422570780525E+01 -1.990363856485E+00 9.420426110134E-01 -2.420058656467E+00 -7.775408103816E+00 1.597273841191E+00 4.332129442566E+00 -1.910982700866E+00 8.668795881288E+00 -3.589676598723E+01 1.395548365349E+02
 -4.234304380330E+01 2.572620392288E+01 2.975987533341E+00 -4.223743960177E+01 -3.522596793921E+01 6.646460980978E-01 3.937347515132E+01 -7.614594500865E+01 -1.757095040776E+01 1.347363941459E+02 1.260715899570E+01 7.880079656245E-02 2.285323353007E+01 8.048904137729E+01 -8.313272405425E+00 -2.123011748332E+01 2.186624979740E+01 -4.438538919601E+00 -8.606892232766E+01 -4.737487777116E+01 -3.226110395986E+01 5.543020728762E+01 -1.817328915694E+02 -2.203432832321E+01 8.711024139645E+01 6.025046586046E+00 1.024989326029E+01 4.309058921200E+00 3.304770327771E+01 2.650421407270E+00 -3.882577013056E+00 2.936350401769E+01 -1.300667191177E+02 -1.896032099586E+02 7.908963653046E+01 1.091264237652E+03
 -2.591820963611E+01 1.593181014930E+01 5.139531297782E+00 -2.693298337205E+01 -2.174376160267E+01 4.691999841912E+00 -2.653765477164E+00 2.948703103652E+00 -5.201087494387E+00 -1.100668952384E+02 -8.883878620943E+00 -3.679044957475E+01 1.590558837682E+00 1.426538365933E+01 1.861719996856E-01 -3.692973855540E+00 4.539016324943E+00 -7.066331561222E-01 -1.692080229120E+01 -8.932164892313E+00 -8.596135205057E+00 1.386535146157E+01 -4.878560559673E+01 -2.811010278347E-01 2.133984019824E+01 1.945314758574E+00 5.753802806847E+00 1.088130511446E+00 6.750126990546E+00 5.441646556123E-01 -1.080423285228E+00 1.072194223380E+01 -2.423641185626E+01 -5.761257213873E+01 3.737419357163E+01 6.067355308163E+01 2.189034268722E+02
 4.970942083622E+00 -3.769850621340E+00 -2.234657753679E+00 -1.552939881253E+01 -1.330375299585E+01 3.333479931232E+00 2.797960730265E+01 -8.180526149842E+01 1.524564492485E+01 -7.802729680580E+00 -2.081322568721E+00 -4.194471413548E+00 -9.334493801662E+00 -5.005994612020E+01 -1.474539035993E+01 -1.700906047739E+00 1.582502759849E+00 5.335900068720E-02 -3.920025042296E+00 -2.169802194118E+00 -2.490970971900E+00 7.822154177692E+00 -1.371117871704E+01 -1.204523440908E+01 5.586853998188E+00 4.043555317630E-01 2.121342369491E+00 1.658850040894E-01 2.640792381992E+00 1.012792040772E+00 -2.343310853004E+00 -7.762967111876E-01 -7.851674033655E+00 -2.406574495495E+00 -1.479020627274E+01 4.855586676633E+01 -7.517592184919E+00 1.781825477933E+02
 4.994684538608E+01 -2.971164647148E+01 -5.997581030573E+00 4.989343307704E+01 4.128365148649E+01 -3.798048359547E+00 -4.749325019457E+01 1.031584630357E+02 5.607401945711E+00 -1.866754632783E+02 -1.541375760680E+01 -2.894940787650E+01 -2.610813431211E+01 -1.039569917363E+02 -3.855412754861E+00 2.060824077346E+01 -2.141578879315E+01 3.113224425426E+00 6.773322055712E+01 3.659858600654E+01 1.444845509474E+01 -2.766267245545E+01 1.163441077627E+02 -2.319120091794E+01 -7.583605198568E+01 -5.179662580122E+00 -1.934704599195E+01 -3.777231904678E+00 -3.316601689934E+01 -4.508482627931E+00 7.542664287928E+00 -2.790933016903E+01 1.110785885756E+02 1.877582296692E+02 -1.929985890290E+01 -1.010640501590E+03 -4.053616047348E+01 -3.888981674773E+01 1.183612955845E+03
 -2.737291390166E-01 1.558093224445E-01 -2.041069017967E+00 -4.766864583295E-01 -4.442814819291E-01 -2.370329692971E+00 -1.619304612637E+00 4.564130757272E+00 3.861662522353E+00 -1.076276855659E+01 -9.607915898355E-01 8.416254160010E+00 -8.400354097749E-01 -5.434335742170E+00 6.130757225045E-01 9.606141888552E-01 -1.134502383134E+00 3.292383260645E-01 2.701356900968E+00 1.534619792511E+00 4.456977220242E-01 -4.606789718688E-01 2.654703585511E+00 -1.790510694331E+00 -3.213091904024E+00 -3.625309009282E-01 -1.087528208057E+00 -1.627082454766E-01 -1.617441969971E+00 -3.272479608362E-01 -7.665351350846E-02 -1.586997958382E+00 5.354949048000E+00 6.667095061406E+00 1.941281792027E-01 -1.912085332642E+01 -1.190868258667E+01 4.029588351985E+00 2.460633085345E+01 1.946527324667E+01
 1.048387081205E+00 -6.499483184291E-01 1.390225639125E+00 -3.093492986654E+00 -2.288248640004E+00 -2.155625815788E+00 4.048236346739E+00 -1.062841968112E+01 -5.808281740263E+00 1.780991435362E+00 1.262148125081E-01 1.254009194075E+00 -1.230394341794E+00 -5.804764154048E+00 3.700474706872E+00 -3.486771141592E-01 3.803560388694E-01 -9.197511528000E-02 -9.765450030837E-01 -5.806581779116E-01 -2.095412681513E-01 -3.726215109271E-01 6.913860443821E-01 5.791503275980E-01 1.134739980187E+00 1.529140989553E-01 2.561930615959E-01 6.772901264404E-02 5.431477973831E-01 1.297054723535E-01 -9.427821607224E-03 4.905665945720E-01 -1.736333350446E+00 -1.843339221127E+00 -2.827922546035E-01 3.709271016868E+00 1.386512105791E+00 -3.425807672953E-01 -2.441938384651E+00 -1.592097962576E+00 1.819282660674E+01
 -1.710332021805E+01 1.036386729327E+01 -2.306765009951E+00 -1.832506326533E+01 -1.396342801717E+01 -4.268514986395E+00 1.022440290436E+01 -2.799052250662E+01 -1.125643148744E+01 2.862881583200E+01 7.691357238631E-01 -7.024245071418E+00 3.987238612119E+00 2.920391981352E+01 -1.422932969994E+00 -6.936742644408E+00 7.982380447805E+00 -2.396780161528E+00 -1.886565132651E+01 -1.105848492858E+01 -3.039192578096E+00 4.002821689862E+00 -1.725789534122E+01 1.082066704959E+01 2.168041561805E+01 2.544907545638E+00 7.168875956920E+00 1.293721639889E+00 1.119889109222E+01 2.359128744706E+00 9.618100780424E-03 1.003364596518E+01 -3.666136106478E+01 -3.106534259336E+01 -1.538081400017E+01 1.174414279762E+02 3.935875510442E+01 1.212973065617E+01 -2.175729447365E+02 -1.688966945382E+01 1.424666256092E+00 1.481590683387E+02

