#BIOSYM hessian 1
@Type: Hessian Update
@Units
 distance: 	A
 energy: 	Kcal/Mol
#header
@natom 19

#label
L1      L2      L3      L4      L5      L6      L7      L8      L9      L10     L11     L12     L13     L14     L15     L16     L17     L18     L19

#element
Li Li Li Li Li Li Li Li Li Li Li Li Li Li Li Li Li Li Li

#matrix
57
 2.005541406631E+01
 -7.216741255389E-01 2.031538888706E+01
 4.571116435703E+00 -6.057865769992E-01 2.257141139148E+01
 -5.289608201157E+00 -2.229611617316E+00 -3.948703593246E-01 1.990380670406E+01
 -2.768838824284E+00 -3.486156379256E+00 -1.012216699806E+00 -3.822667616259E-01 2.051756189945E+01
 1.804488438117E-01 -1.074253336504E-01 -6.844103443415E-01 -1.835499703968E+00 -6.684032421274E+00 2.438717968853E+01
 -2.362802581528E-01 -2.765839686734E-01 -8.169512956828E-02 -4.300661494249E+00 3.520434296752E+00 7.346065739918E-01 2.498255715603E+01
 -5.176591177503E-01 -7.312752789722E-01 1.074336517190E+00 1.587283898442E+00 -1.368214470446E+00 3.427692620587E-01 3.029453931523E+00 1.917336267125E+01
 2.937509872745E-01 -9.034117857169E-01 1.473651385408E+00 -2.424508012241E+00 2.023911215277E+00 -2.592736475034E+00 -3.082170110409E+00 -2.532891896408E+00 2.107458679082E+01
 -7.388817157425E+00 2.774354459825E+00 1.339036349413E+00 1.077694697253E+00 -2.274868551539E-02 1.016703715337E+00 -6.281584889828E+00 -8.862106705825E-01 -5.260536832094E+00 1.975612137420E+01
 1.670905903810E+00 -9.628542377748E-01 -5.380965462545E-01 1.567776737857E+00 -3.997010260796E+00 -3.800002792379E+00 -1.838579509023E+00 -1.018504833181E+00 -1.547411306746E+00 -1.710824600132E+00 1.332338267054E+01
 1.130051382532E+00 -3.439872040591E-01 -7.695042781074E-01 3.711593202371E-01 -2.337732164798E+00 -2.581740761823E+00 -4.230774077005E+00 -2.110967841729E+00 -2.473286592419E+00 -1.909042132947E+00 1.696028089689E+00 3.013357637335E+01
 -3.119487762630E+00 1.432694610898E+00 -1.685572377611E-01 1.591327978667E+00 -1.395420539537E+00 1.131233469036E+00 -9.325243067831E-01 -7.598443164422E-01 -9.174020141099E-02 -1.807243551963E+00 -2.121387127837E+00 6.570531791560E-01 1.841973407807E+01
 2.163589742572E+00 -6.792529399287E+00 6.026396759469E-01 -8.310227719053E-01 3.594820883449E-01 -1.874209925406E-01 -3.920003852786E-01 9.698033967575E-01 1.026976007462E+00 -2.515489205274E+00 -4.315897285586E+00 8.497279930174E-01 1.042967529402E+00 2.037743393657E+01
 -5.269474673397E-01 7.058202020285E-02 -9.569160292131E-01 1.232266096131E+00 8.840240919174E-01 5.237451446545E-01 -1.858775217171E-01 -2.452920109165E-01 9.680391056442E-01 2.299802045412E+00 2.103633298122E+00 -9.942436747996E-01 1.946311540378E+00 4.497091290370E+00 2.131678345029E+01
 -9.963645855912E-01 -5.020424134758E-01 -1.562556275198E+00 -7.164818418907E+00 -1.936571843872E+00 7.379411290547E+00 -1.187937846117E+00 1.949371473124E+00 -1.087563502137E-01 -1.688990933893E-01 -7.570278596019E-01 -1.273020191954E+00 1.737275012073E+00 1.630148121475E+00 1.363757689732E+00 2.036607511139E+01
 -6.756529851992E-01 -4.247673203827E+00 -6.497838294665E+00 -3.669184582812E+00 -1.618231974881E+00 2.936967431194E+00 5.249531145391E-01 2.503354440448E-01 9.455666438780E-01 -3.730846930630E-01 -1.865866658593E-01 2.614606767955E-01 -3.711610200764E-01 -1.270013013648E+00 -1.446462362165E+00 6.817643673343E+00 2.164218872967E+01
 -2.916934827118E+00 -5.227909464291E+00 -1.009825064884E+01 7.510451086864E+00 4.019875912690E+00 -8.839573902957E+00 4.026961442582E-01 -5.348479879640E-01 -2.127912601376E-01 -7.307107173886E-01 4.326254638319E-01 -2.316856986428E-01 1.711713438326E+00 -1.623583923237E+00 9.223220296339E-01 -5.063868428996E+00 8.416233063989E-01 4.139315786467E+01
 8.024238141567E-01 8.987313262591E-02 1.630662590690E+00 -2.227907809598E+00 1.782706714717E+00 -6.600516416131E+00 -4.780826886501E+00 2.301322896879E+00 5.590298438819E+00 -5.850410850110E-01 7.290914111902E-01 1.348040011180E+00 -6.029642462000E-02 2.332195310877E-01 -3.693338720449E-01 -6.646274527660E+00 1.149354924331E-01 -7.271756143823E-01 2.096643990593E+01
 4.462753133720E-01 1.099323636886E+00 3.443223773058E-01 1.484765467677E+00 7.057904672621E-01 1.772634517352E+00 2.146026635020E+00 -2.850057082636E+00 -6.522445754494E+00 3.915710716420E-01 -4.851241165085E-01 1.171735413334E+00 8.102440544421E-01 -1.951480565602E-01 5.672506247411E-01 -3.797563048310E+00 2.068212416373E-01 8.371097652290E-01 -6.916884602658E+00 1.305505093260E+01
 -7.252503606143E-01 -1.955766894711E+00 -5.670954848676E-01 -2.717906624466E+00 3.931436876884E+00 -1.102877732387E+01 4.622952321730E+00 -3.680842653719E+00 -6.089160712694E+00 -1.363686974311E+00 -4.690638305062E-01 1.265837631543E+00 -1.127570918708E+00 -8.461675417126E-01 -1.071490944878E-01 -3.176698246943E+00 -2.719369319062E-01 -1.245667856256E+00 5.304120820035E-01 2.611638092141E-01 3.838619097214E+01
 1.501129395621E+00 -7.884209763340E-01 6.802359910067E-01 -2.441909488187E-01 9.321475260884E-01 -5.550395995693E-01 7.605526313878E-01 -1.029252215574E+00 1.680667689016E+00 8.187226749899E-01 -2.964656908511E-01 -1.587357317125E-01 -4.272398241268E-01 -8.512271761606E-01 -2.446434235136E-01 -8.581254079846E-01 2.611576596850E+00 9.230809858628E-01 -3.039876051297E+00 5.803530316624E-01 1.059780660653E+00 1.132695722354E+01
 -1.847617039595E+00 8.138350333772E-03 -1.594293849141E+00 1.126595391367E+00 1.510880293879E+00 -1.600349536682E+00 -1.220106210199E+00 -3.578567623761E+00 6.019066886239E+00 -1.702457113208E+00 3.339367961142E-01 2.140896494736E-01 -3.052347239221E-01 6.667198230198E-01 9.823801635608E-01 -2.164373926377E-01 -4.205915543256E-01 4.735556448008E-01 2.980928340037E-01 -5.001038870426E+00 -1.290881378447E+00 3.780690243452E+00 2.113890783100E+01
 -1.655018335499E+00 1.170044160557E+00 -1.337977827521E+00 -5.930204715441E-01 -6.067761608322E-01 1.832116400729E+00 1.031205149937E+00 7.452624869933E+00 -1.036684042166E+01 9.622207584716E-02 5.873347165170E-01 1.169897594743E+00 2.773872285139E-01 -2.480248844607E-01 -8.726374369959E-01 2.870135552619E+00 -7.642549972233E-01 -3.190912832404E+00 -1.803973317901E+00 1.493597826755E+00 -2.926100376627E+00 -5.068575120830E+00 1.429139052693E+00 4.485631278237E+01
 -2.263235445136E-01 4.578947782771E-01 3.162193751983E-01 -4.776588470880E-01 -4.829168410906E-02 -1.816244015712E-01 -6.681796319321E-01 -1.248936374623E+00 -1.554014248898E-01 -1.273706822488E+00 3.131493759486E+00 -8.108620061117E-01 -7.276830021257E+00 -1.254133722479E+00 -1.407158914145E+00 -2.705512921674E-01 4.172168637341E-02 5.392006447287E-01 1.486606515778E+00 9.723197042409E-01 1.160630091630E-01 2.928163462811E-01 -5.849265272393E-01 -2.627582295737E+00 2.216361971600E+01
 1.781510592600E+00 3.261431472827E+00 -3.832776105592E-01 1.098501938855E-01 -1.806030885647E+00 -2.263611724343E-01 -1.483585063376E+00 -7.211616716094E+00 -9.724591112186E-01 3.523342267814E+00 -3.808979471211E+00 2.529276366308E+00 2.808844830001E-01 -3.021727817118E+00 -5.486785738691E-01 2.542556186449E-01 -2.212356119373E-01 -8.702108735574E-01 1.726962098214E-01 5.564073647266E-02 -3.796575408097E-01 -1.501868952405E+00 -4.706876211920E+00 -5.832528122573E+00 -3.594428800263E+00 2.431279583261E+01
 -3.848956842216E-01 -3.239355365749E-01 1.856753367992E-01 -2.930871033652E-01 1.075099573429E+00 6.910238811916E-01 1.335017248890E-01 -8.672180150316E-01 -8.994596401412E-01 -1.119935735795E+00 2.319050655938E+00 -1.995873179322E+00 -9.765913628067E-01 7.512748300519E-01 -6.196839080828E-01 -8.406148929874E-01 1.153534133193E-02 1.184984577745E+00 -6.320586494458E-01 -1.491625128199E-01 5.712201446400E-01 -1.137776725309E+00 -4.548038916962E+00 -9.468166421611E+00 -5.203449338934E+00 3.273063347629E+00 1.963742362403E+01
 1.316007814647E+00 -1.060448403833E+00 8.292140377636E-01 -7.806408791065E-01 -5.479505344026E-01 1.426162771756E-01 1.912281087760E+00 -1.554492417643E-01 1.148900656603E+00 -1.731897944234E+00 -5.990952607058E-01 -7.381769423056E-01 -1.962432910711E+00 1.533214054250E+00 -5.292848387567E+00 2.908390704889E-01 2.548423166592E-01 -1.603969162866E+00 8.174242618807E-01 -1.531307315988E-01 1.917179474475E+00 -4.636292375593E+00 1.967955284821E-01 -5.810597564234E-01 -7.392870409347E+00 -2.809490785426E+00 5.870695471218E+00 2.481488896056E+01
 5.591013911575E-01 -5.645074585923E-01 -1.897555211317E-02 1.982666355131E-01 -1.092606087621E+00 -5.052111205830E-01 -5.888971303252E-01 -1.739723663853E-01 -1.868260294170E-01 1.025281816185E+00 5.274459647783E-01 2.674820120269E-01 2.191289500883E-01 -1.614282605666E+00 -2.778212582817E-02 1.385696993029E+00 -1.759556757605E+00 -7.198385410155E-02 -6.480599600491E-01 -3.630233198305E+00 -1.851338651884E+00 -1.368421611269E+00 -3.324055821712E+00 -1.138579822493E+00 -2.125748861108E+00 -8.418913459485E-01 1.823853345209E+00 1.414781354775E+00 1.137666302024E+01
 2.500441066901E+00 1.107797027719E+00 1.294491499304E+00 -3.906181146751E+00 1.312075363200E+00 -1.787113227485E+00 1.497319044347E+00 2.164412260352E+00 1.068530600959E+00 4.841113958425E-01 4.937661424563E-01 -2.999737264074E-01 -4.922887653908E+00 8.428930985612E-01 -1.146021890923E+01 8.368952240509E-01 6.297039211262E-01 -4.009753720076E+00 2.660711810317E+00 -1.700119340945E+00 -5.287318582314E-01 -4.557540049219E-01 -1.594713687193E+00 -3.534310129476E+00 8.037791681298E+00 1.775755075523E+00 -7.342273576852E+00 -1.643556170396E+00 4.101095317411E-01 4.000588778016E+01
 5.466117204930E-01 6.894932988904E-01 8.379146527663E-01 -1.332417311180E+00 7.710990283663E-01 -5.553165654390E-01 -9.162830752460E-01 2.411761936128E-01 1.066166396376E+00 4.618504087815E-02 -2.800982850649E-01 -1.792850799301E-01 -4.883367336944E-01 -1.331734903534E+00 -1.514660535748E+00 8.066342198108E-01 2.168330035879E-01 -7.090087961325E-01 1.454942049489E-01 -1.059250190157E-01 1.822636331004E-01 -1.381791513391E+00 -3.706384202267E-01 6.037604889685E-01 -1.151313884598E+00 5.334754805462E-01 8.659079515496E-01 -7.081228560717E+00 8.513379917708E-01 6.023230627500E+00 2.112148824303E+01
 1.012075130805E-01 -1.032612463995E+00 6.754944850088E-01 -8.658790316805E-01 -4.466027762908E-01 -1.126241608960E+00 4.486086367173E-01 -7.537440770504E-01 1.008990603084E+00 -3.174750497592E-01 4.774892219645E-01 -1.773456037781E+00 -8.548593606625E-01 -6.331031651964E-01 -5.057700255944E-02 1.374735775634E+00 -7.088760532779E-01 1.865520416029E+00 1.126432728834E+00 2.034363146454E-01 1.606181875887E+00 -1.930583553907E+00 3.465599770222E-01 -2.607680342423E-01 -8.342192030028E-01 3.321196784551E-01 4.145939189347E-01 8.872960734539E-01 1.236090615293E+00 -5.050520092460E-01 2.236395485887E+00 1.891051669603E+01
 -2.323320026423E-01 -2.213180126627E-01 -9.638335843327E-01 1.027993602692E+00 6.488570524276E-01 -7.600797679804E-01 5.001935967653E-01 5.585746721896E-01 -1.215812761981E+00 -9.512367933060E-01 2.191666451435E-01 2.019113054698E-01 5.945146472124E-02 -1.366497425415E+00 1.554304882578E+00 -2.106186030290E-01 6.829368846977E-01 1.498028602742E+00 -3.360945631416E-01 -5.414123658616E-01 7.935715613699E-01 1.892272204853E-01 7.161841696035E-01 6.276481865774E-01 6.416245099569E-01 -1.125858705648E-01 -7.649571366867E-01 5.999921846078E+00 -1.512961577148E+00 -5.850792977707E+00 -9.086414843182E-01 -4.022841974669E+00 2.131320782947E+01
 -1.401161697466E+00 9.050066197217E-02 -1.373230197650E+00 3.323355345148E-02 -1.007685657467E+00 -3.473700178550E-01 -1.041919292755E+00 -1.434038018605E+00 -2.233561865178E-01 1.448268519345E+00 7.234666136858E-01 -1.163098965685E+00 -4.174363530133E+00 2.106012518651E+00 4.343894007257E+00 -2.896737374756E-01 -1.158806326114E+00 3.802501683923E-01 -9.000184936467E-01 -1.589539433399E+00 -2.080483606059E-01 4.566351511651E-01 1.141442221734E+00 -1.566993133247E+00 -7.978305651481E-01 2.589919779354E-01 2.072812346959E-01 -4.343607826211E+00 2.745644504964E+00 -1.359237042129E+00 -9.820379681640E-01 2.531743549025E+00 -4.107122694352E+00 9.930099552795E+00
 -2.892499432205E-01 -4.944162040996E+00 5.655019204019E+00 -8.882533890881E-01 -7.787649369357E-01 1.046567890998E-02 5.824101052747E-02 4.987877095962E-01 8.355948635490E-02 -1.316090803471E+00 5.716858047910E-01 -5.310576421037E-01 2.891062693240E+00 -2.271151326644E+00 -4.271143607810E+00 1.168560147998E+00 -5.664509542205E+00 1.000556256732E+00 5.392479135854E-02 -9.650721893752E-01 6.134484724398E-01 4.508539486447E-01 1.287393791234E+00 1.415961755890E+00 -9.438669558967E-02 -1.810520760401E+00 -9.611623066734E-01 1.318490525857E+00 -1.928918433813E+00 -4.639295534624E-01 1.727060937478E+00 -3.195599263217E+00 6.752629487260E+00 -5.451377395201E+00 2.190296101096E+01
 -2.247176702343E-01 7.923984952990E+00 -9.455507133403E+00 1.096434627768E+00 -5.949952958041E-01 5.586685414243E-01 1.829982097215E-01 -6.966620962695E-01 -1.360165520901E+00 1.863287693654E+00 1.869875402938E+00 8.461552460786E-01 4.155737982144E+00 -4.189577659753E+00 -5.644120123383E+00 -1.531960951805E+00 2.718736382972E-01 -2.148002203823E+00 -1.657029295189E-01 3.634287572651E-01 3.750745428426E-01 1.086300904095E+00 -1.095408825352E-01 1.934622421493E+00 1.134074638156E+00 4.733398008798E-01 -4.542405107788E-02 9.431900465803E-01 8.412683433489E-01 -7.603605451576E-01 -3.764761508222E+00 3.290545075882E+00 -9.315478266801E+00 -3.068162866943E+00 -1.538984728744E+00 3.889971216330E+01
 -6.199076502883E-01 1.064608315372E+00 -2.270263854913E+00 -8.846356730245E-03 -2.329042375618E+00 1.740632351198E+00 4.441876855300E-02 1.061099572886E-01 1.003533499199E-01 1.664071683691E-02 5.991062526591E-01 5.856828300194E-01 1.001472891090E+00 1.000005801788E-01 -2.141346982574E-02 -3.652345826361E+00 -2.567414639721E+00 4.142568877991E+00 5.150474518888E-01 3.735047399427E-01 -7.510559229431E-01 -3.756783028514E-01 -1.545481272990E+00 2.418554916353E+00 -1.706320665851E+00 4.555791316338E-01 5.322145519370E-02 5.476504441587E-01 -6.856600532026E-01 -9.531991373807E-01 -1.945773287729E+00 3.381192090611E+00 4.977202877127E-01 -2.857573812808E+00 1.213960293611E+00 5.358120471359E+00 2.409806896963E+01
 -3.674878045545E-01 7.029420975481E-01 -8.260630541741E-02 2.302906418799E-01 -6.701399412151E-01 4.468806602369E-01 -1.461366823983E+00 -8.599919414684E-01 3.951935245315E-01 6.054362084816E-01 -3.974758820379E-01 1.277129582083E+00 6.493184479509E-01 -1.289875610046E+00 -6.058048467846E-01 -2.040291486239E+00 -4.255185423766E+00 4.769354264644E+00 -7.218550477794E-01 2.890149023756E-01 6.970194801585E-01 -7.651373089349E-01 2.130090097914E-01 -2.050825335462E+00 -4.790654343354E-01 1.248379666653E+00 -1.323584831858E-01 -1.587391582075E-01 -2.601073849766E-01 -1.854856924254E+00 1.991076367626E+00 -5.644854200005E+00 -4.054216392249E-01 8.340560551660E-01 -5.885480516658E+00 -5.310643749845E+00 -5.837883250751E-01 2.015364155617E+01
 -1.073996037321E+00 -2.216026138987E-01 2.425679809478E+00 1.073803813159E+00 -2.308144535201E-01 -2.405980784742E-01 -2.090729351406E-01 -1.953929977249E-01 -6.908365325571E-01 1.097371357231E+00 -1.206506095568E+00 7.879848211491E-01 -7.671087318483E-02 -3.367736166299E-01 -1.277074755826E+00 5.801506530059E+00 6.066170057499E+00 -7.992123439127E+00 -1.310220089209E+00 9.101601196419E-02 -2.079048047210E+00 9.129538661605E-01 1.936673840058E-01 -1.523140321554E+00 4.266035951975E-01 1.358111154763E+00 -4.626406782041E-01 -5.243493733993E-01 8.014582524031E-01 2.136976564972E-01 -6.325971907847E-01 2.280492105162E+00 -2.100958412689E+00 3.367909905338E+00 -6.346425491984E+00 -8.352260142326E+00 -6.460194344116E+00 9.369769580937E-01 2.180097582917E+01
 -8.332138216540E-01 -1.170924294097E+00 -8.541411744652E-01 -5.206817994021E-01 -7.042352320441E-01 3.339818975002E-01 -4.311130154911E-02 -9.600098980012E-01 1.174516590397E+00 3.287382191428E-01 1.070818546854E-01 -1.544596976290E+00 -1.317495871793E+00 -6.526505701288E-01 -1.315414410961E+00 -1.189479721548E+00 -1.875762108876E-01 -5.377872213431E+00 -7.230860830505E+00 1.541967758215E+00 5.995279955785E+00 -1.392424910286E-01 1.291719870834E+00 4.941650643131E-01 -1.962274789332E+00 9.810601919105E-01 5.679938781978E-01 -4.678782882628E-01 -1.597897452755E+00 7.900475858825E-02 1.506027602190E+00 -1.148192430119E-01 -3.549979143008E-02 1.887961511534E+00 3.572887328584E-02 -3.314920248202E-01 -4.689363649015E+00 -3.441842764364E+00 -6.861561083533E-01 1.504646531654E+01
 -4.128984294084E-01 -5.497174838185E-01 1.327738532195E-01 1.984814946228E-01 3.077565088018E-01 -2.681680361000E-01 2.371265104709E+00 2.100368776951E+00 -1.260093763729E+00 -5.292056552532E-01 3.127011955093E-01 1.908999796216E-01 3.537229441874E-01 6.328358247215E-01 4.943542107289E-01 -2.585554702080E+00 -2.902861482410E+00 -4.617110171615E+00 2.317298712357E+00 1.155642842791E+00 -2.138208799777E+00 2.349389176318E-01 -3.699115719718E-01 2.454318067049E+00 -5.732103923029E-01 -2.034442095908E+00 2.532388077032E-01 1.107094974363E+00 1.639280726911E+00 4.425893752813E-01 -8.670019732358E-01 -4.953156266444E-01 -4.482869678925E-02 -2.222465919255E+00 -1.783357679410E-01 -8.195107868694E-01 -3.462568912747E+00 -4.142266483319E+00 -1.294333738276E+00 1.259846614638E+00 2.168402786305E+01
 -4.391080098088E-01 -1.167825795042E+00 -5.762836244873E-01 -9.070697721039E-01 -6.250102526957E-01 3.079786324517E+00 5.855916373127E-01 -1.244707132029E+00 -1.710798003661E-01 4.934774590609E-01 -2.263526112284E-01 -1.059540005366E+00 -1.024739520525E+00 5.823670338574E-01 -1.526042478440E+00 -4.098703703437E+00 -4.955165677162E+00 -1.170263069723E+01 5.121396635040E+00 -1.995561176789E+00 -5.404481210763E+00 -9.526218263115E-01 1.488202012792E+00 5.895868949992E-01 -8.298030062929E-01 -6.911066840156E-01 -1.220801514313E+00 9.863598033767E-01 1.503460927697E+00 4.076519268709E-01 -6.889490559942E-01 -1.288179302675E+00 -6.500062494075E-01 4.528328323503E-01 7.082353601385E-01 -7.498138580754E-01 -6.878262019098E-01 -6.866350102916E-01 -8.694626958315E-01 -7.311616092933E-01 7.520077790489E+00 2.076299696318E+01
 -2.723975194038E-01 -4.126756134718E-01 -2.316441359096E-01 4.086043311187E-01 8.839233416357E-01 8.823188656887E-01 6.304731973078E-01 2.066498392137E+00 -3.154066093787E+00 4.743750217956E-01 -7.006805792786E-01 1.326371862931E+00 -2.583934027136E-01 1.227649255242E+00 1.388158194782E+00 -5.148692105227E-01 -8.417472124237E-01 2.611365625562E-01 -2.429360919426E+00 1.701816563064E+00 -6.701478157027E+00 -1.188327695527E+00 2.356106161923E-01 4.607506681194E+00 2.937179366789E+00 -3.075786124227E+00 -1.120440215112E+00 1.571245955961E-01 -1.792804897016E-01 2.056611078562E+00 2.351889723791E-01 -1.150817730759E+00 2.477383649326E-01 -1.060805980537E+00 -2.364886042492E-01 -1.999358479610E+00 -1.109206767585E+00 3.490252130884E-01 -1.054699292355E+00 -2.362989895130E+00 1.211373759860E+00 4.530542006172E-01 2.011314457197E+01
 9.041062849936E-02 -1.535408359309E-01 -2.355934251447E-02 -1.309178529876E+00 -6.263671876024E-01 8.678759380543E-01 1.050470415359E+00 -7.753278617069E-01 8.346503718837E-01 -2.486450841812E-01 1.179830145429E-02 -5.471047757290E-01 -1.094146044867E+00 -1.226055746182E+00 -7.067492567001E-01 6.621707519528E-01 9.445173839810E-01 -3.746826671981E-01 2.206390472985E+00 -3.160375328177E+00 5.707359443993E+00 1.055745045436E+00 -4.739203388812E+00 -6.542982878843E+00 -7.049205085064E-02 -6.812840161645E-01 -1.801206564200E+00 -6.631142141825E-02 -3.732458522589E-01 -2.081750968711E-01 -8.103363170799E-01 -8.883581477870E-01 2.000167253258E-01 1.915810446776E+00 4.377083618927E-01 -7.436220383585E-01 1.089616210953E-01 2.927233679875E-01 -9.881734292058E-01 1.751319989676E-01 -1.396233429632E+00 5.857414655018E-01 2.051415212233E+00 1.805762258646E+01
 1.594071124506E+00 7.680310892255E-02 3.450965474098E-01 -1.168112502973E+00 -7.202994654560E-01 -4.860398170767E-01 -1.370155267833E-01 4.298531397737E-03 3.115669963256E+00 -2.309010017808E-01 -3.072554214623E-01 5.495829049234E-01 -1.498329869175E-01 -9.452112362805E-03 -9.291753108552E-01 6.424636499156E-01 5.553360947738E-01 2.687289275343E-01 -4.736469929970E+00 3.165362894526E+00 -1.188680164773E+01 8.552868591468E-01 -5.333732040723E+00 -9.523337388214E+00 3.387407890228E-01 -3.038939990575E-01 -1.374927568862E+00 -1.443611947115E+00 1.155922678981E+00 1.089770992023E+00 5.388447202684E-01 7.821342251879E-02 4.408349370051E-02 3.666951140698E-01 -4.544647482764E-01 -1.825084424610E+00 1.557998273472E-01 -2.095053578247E-01 1.055191063263E+00 -9.030953238944E-01 -3.590275076532E-01 -1.332762157709E+00 5.951740569294E+00 1.638964430274E+00 2.447263246101E+01
 -1.419973943460E+00 3.489065634729E-01 5.657032103276E-01 7.308524449894E-01 -1.481451065732E+00 2.903741163110E-01 2.004778446737E-01 -9.160555104440E-01 2.492944853720E-01 1.157481708474E-01 2.552927176505E-01 2.076090788715E-01 -4.659889251728E-01 -5.881393136033E-01 9.616477210326E-01 -8.571141689295E-01 -4.104075047092E-01 4.293562033740E-02 1.141735024609E+00 1.187416560976E+00 -2.744156001294E-01 -3.495404356205E+00 -2.849325558293E+00 4.006470376736E+00 8.284969061294E-03 1.645512387867E+00 -5.357190819232E-01 -3.316066719798E+00 -9.356218540495E-01 -7.072471970583E+00 -6.852214877827E+00 -2.250598290052E-02 -2.252215529702E+00 7.190423233691E-02 -1.315239056111E+00 -1.683328511726E+00 1.484382778681E+00 6.176090257927E-01 -5.324148992535E-01 -3.221114583989E-01 -1.612788260636E-01 -3.941417119123E-01 -8.147865721223E-01 -5.117623910256E-01 -1.000450774126E-01 1.961826865456E+01
 -1.091181630232E+00 3.031303123208E-01 -1.124762662955E+00 1.603866800095E+00 -3.658241105890E-01 1.466381541101E+00 -2.305492129416E+00 -8.755159819545E-01 9.005906473202E-01 6.342238576825E-01 -1.092404352814E+00 -1.031774765937E+00 1.205917981104E+00 1.440881913016E+00 7.139982388517E-01 1.441650115824E+00 -1.120397167687E+00 6.841202929337E-01 -1.624282429455E+00 -7.102706202630E-01 1.114266674424E-01 -1.636111340430E+00 -3.173968384028E+00 5.436996827738E+00 -7.400251112063E-01 -9.605332700526E-03 8.100744078688E-01 -1.945122658416E+00 -1.431852947231E+00 -2.142922813441E+00 1.155669074678E+00 -4.175515734564E-01 -8.734348720078E-01 8.395458207192E-01 1.082991197495E+00 6.237194282425E-01 8.328384007493E-01 6.298475612444E-01 1.292090143418E+00 8.233418567057E-02 -1.045622186436E-01 -9.426662979294E-02 -2.179768220913E+00 -6.399599102149E+00 1.916472794413E-01 -2.066110377603E+00 2.120421234998E+01
 -5.246140539432E-01 2.493695776610E-03 -1.102289613029E+00 9.029415210741E-01 -5.174799545851E-02 -2.339534185533E+00 1.641775000758E-01 5.938606043743E-01 -3.596168399122E-01 -1.567988956860E+00 5.612022760779E-01 -6.479863811508E-01 -9.810186677793E-01 -5.944930311115E-01 -3.593513210135E-01 -1.558015166327E+00 1.063154071620E+00 2.046737771024E+00 3.539118257331E-01 4.635937138324E-01 -9.678822680431E-01 4.581258117529E+00 6.064033563555E+00 -7.608514005984E+00 -1.168965714679E-01 -1.526048649751E+00 2.012450732368E+00 -5.708999573524E+00 -2.357261901530E+00 -1.168682257263E+01 -1.135058917720E+00 -6.398329677555E-01 -3.663632105418E-01 1.255138907895E+00 -5.908483433195E-01 -3.221576400489E+00 -1.370155350209E-01 1.159761829985E+00 1.168154281794E+00 3.352007584047E-01 -1.617717225374E+00 1.154529483500E-02 -1.755489900058E+00 1.097617579472E-01 -1.057778134587E+00 3.873091171305E+00 -4.609353349236E+00 2.455818329239E+01
 1.502493572751E-01 4.466117058540E-01 -5.758083848352E-01 -1.132881599894E+00 9.225902787949E-01 -1.882209673745E+00 -5.544966359914E-01 -4.010284761267E-01 1.709852718922E+00 -1.100199977462E+00 4.064819558103E-01 1.773466212437E-01 -2.077636438804E-01 2.113118549620E-02 -5.356142229077E-01 -9.547513402069E-01 -1.302064112805E-01 2.497073715069E-01 1.918826919308E+00 -6.687118222311E-01 1.601900444007E+00 1.035109049776E+00 4.020965043198E-01 -2.173265125224E-01 -6.704188856847E-01 -3.087157639979E-01 4.136148728386E-01 1.454062347305E+00 -1.548212859955E-01 1.278044962746E+00 -1.521441776345E+00 -2.640462975626E+00 -1.705913235107E+00 -1.488494692444E-01 -1.141391250893E-01 -7.770854343070E-01 -4.719475680537E+00 7.658964097958E-01 -3.335458267056E+00 8.416328103699E-02 1.552409034099E-01 1.511514448607E-02 -5.523564957466E+00 -1.067691898409E+00 2.892825668643E+00 -4.058308339718E+00 2.714966997872E+00 1.444860756834E+00 1.421293061242E+01
 9.561190460487E-01 -5.460675801918E-01 1.279983155873E+00 -4.215602842796E-01 -3.101446972143E-02 8.451448266243E-01 1.826750344505E-01 -1.190874139185E+00 5.462550258206E-01 -2.264867643635E-01 -1.650094549323E+00 1.470181431846E-01 -3.895160679450E-01 3.204459892011E-01 -7.575896974456E-01 -5.588543069353E-01 -6.608509787872E-01 7.307962425003E-03 -7.807116225057E-01 4.579343459205E-01 9.087775338325E-01 4.983577750962E-01 -3.081404322778E-01 -1.326078258666E+00 8.511737482249E-01 -2.086462063524E-01 6.787650189110E-03 -2.391675225386E-01 5.235993707834E-01 -6.503314771149E-01 -2.037904799633E+00 -4.174685084081E+00 -3.791400861003E+00 -4.441887122383E-01 5.986297225840E-01 -8.485190408841E-01 1.478367853605E-01 -1.628234179710E-01 2.036716156744E-01 -6.647178186915E-02 -5.647734167661E+00 3.480799150543E+00 -2.877039755232E+00 -9.995576313959E-01 1.363702206357E+00 3.565955521919E+00 -3.630797637145E+00 -2.440895696382E+00 5.753549284361E-01 1.410813797951E+01
 1.827650750643E-01 -8.076762457281E-02 3.223549205193E-01 -7.476635807367E-01 -8.079108054659E-01 -6.633579858462E-02 -1.341863536284E+00 -9.590262232986E-01 7.218022325316E-01 4.705655516490E-01 8.585874544154E-01 -2.249711331144E+00 -5.424718723923E-01 -2.885089403186E-02 8.150301808342E-01 1.126889077877E+00 -8.033203976588E-01 -3.117249830698E-01 -2.976234681516E-01 2.885172818664E-01 2.313814059561E+00 -8.401943800189E-01 1.514477542866E+00 -1.235483416341E+00 7.740343741898E-01 -4.376932557977E-01 -5.370799549403E-01 -1.449739796192E+00 1.146961541214E+00 1.709061078711E+00 -1.415645988718E+00 -2.577675874866E+00 -2.339544198747E+00 7.481598371607E-01 6.974697551155E-01 -9.126673223990E-01 -3.641675610904E+00 -2.616300065505E-01 -2.167533358056E+00 4.346975152530E-02 3.754229795635E+00 -2.245614664443E+00 1.793793451830E+00 6.448868176960E-01 -2.202162488875E+00 2.288834872781E+00 -3.076762401491E+00 -1.265494773818E+00 -2.237042882101E+00 2.376658308631E+00 3.362014989397E+01
 -3.517132539494E+00 9.806187665381E-01 -3.645361092089E+00 -5.338071295071E-01 2.052989160236E+00 -2.060025431277E+00 -6.780661149398E+00 -4.070852503241E+00 3.058863561267E+00 -5.515291331841E+00 3.972273630802E-01 5.461363076420E+00 -1.258105660677E+00 -3.971920180540E+00 -2.540311902217E+00 -1.129208374535E+00 2.120907773543E-01 3.229698145595E+00 1.707840342887E+00 2.292150722175E+00 5.342084375650E-01 -2.779349357216E+00 2.207559671959E+00 -2.185463232817E+00 -2.902361613924E+00 2.533629481818E+00 4.228666870746E+00 2.141483460520E+00 -1.991555398225E+00 -3.027159986215E+00 2.296470634711E+00 1.881135369831E+00 6.553741491457E-01 2.810297635722E+00 1.799468653963E+00 -2.323115806631E+00 4.808354182510E-01 1.778698636219E+00 -5.634124968146E-01 1.969662600011E+00 -1.719269982581E+00 5.028979119972E-01 -3.305164526917E+00 -2.056949208071E-01 -9.864069871779E-01 -3.040649170333E-02 -1.053102228546E+00 6.824273749054E-01 -6.276910065880E-01 -2.898140320347E-01 2.600179812031E+00 1.984841806685E+01
 2.602598836150E-01 -1.180592246889E+00 1.814777898354E+00 1.118354762727E+00 -8.122256894658E+00 5.137594676332E+00 -4.539935640773E+00 -9.430699447243E-01 1.373179487123E+00 2.689747967468E+00 1.753259940191E+00 -1.755285272988E+00 -2.247989250381E+00 -2.689330969495E+00 -2.344565443888E+00 -1.973924411454E+00 1.178973437853E+00 -2.040995026587E+00 -1.414738992348E+00 -9.469351770804E-01 -4.406904028760E-01 1.489009984099E+00 1.875087152318E-01 -1.070250016957E+00 5.358807306466E+00 -6.550253571056E+00 -2.484066014311E+00 7.787071718680E-01 3.962851030733E+00 1.080325458828E+00 1.800009525164E-01 5.941990148351E-02 1.482354880963E+00 1.200694763384E-01 4.377036477177E-01 -2.740769130862E+00 2.073594102998E+00 1.148472345623E+00 4.266215316619E-01 1.584372566783E+00 -1.793603826188E+00 -1.117552864530E-01 2.501649981302E+00 3.656823213959E-01 1.002599263158E-02 -2.149601926790E-01 9.390274898727E-01 1.280908036538E+00 -1.348335493720E+00 -3.903781796498E-01 4.391691597289E-01 -4.086897160792E+00 1.446563730907E+01
 -3.676087831063E+00 3.059138848889E+00 -2.636620276472E+00 -6.619137062857E-01 -4.964974390842E-01 -5.881595483899E-01 2.089557284910E+00 4.896242829829E-01 3.306427091411E-01 3.004548068232E+00 -4.238282855674E-01 -2.044498845051E+01 -1.023423869817E+00 -3.192155196522E+00 -2.160117484065E+00 1.850573374586E+00 -9.791211712928E-01 8.511521352891E-01 -3.117552089365E-01 -5.541572160074E-01 -1.558694915956E+00 -3.529038010655E+00 -4.985997243938E-01 -2.592639307133E+00 1.378004214889E+00 -6.312137453630E-02 -8.497276573633E-01 -1.000920027081E+00 3.683909073270E+00 1.693516941542E+00 -7.019615904134E-01 3.167865621481E-02 -5.376736411080E-01 4.215055009838E+00 -5.680386213303E-01 5.059074004505E-01 -3.386527538953E+00 7.844580021449E-01 2.189638012099E-01 -3.548641398866E-01 2.003096479985E+00 1.909517572786E+00 1.608925652994E+00 2.247932940970E+00 1.636613369293E+00 1.850934988663E+00 -2.159812966062E+00 1.937748504729E+00 -3.818171135769E-01 -5.760043261767E-01 -8.122859231357E-02 -5.311112266479E+00 -1.027918812803E-01 4.520677338611E+01