#BIOSYM hessian 1
@Type: Hessian Update
@Units
 distance: 	A
 energy: 	Kcal/Mol
#header
@natom 19

#label
L1      L2      L3      L4      L5      L6      L7      L8      L9      L10     L11     L12     L13     L14     L15     L16     L17     L18     L19

#element
Li Li Li Li Li Li Li Li Li Li Li Li Li Li Li Li Li Li Li

#matrix
57
 1.017734675674E+03
 2.584099456147E+01 9.776633063820E+02
 -1.254881211140E+02 8.473652181678E+01 7.829539455426E+03
 1.483209804682E-01 1.247695132168E-01 6.853434305702E+00 4.796384078181E+02
 -1.976872209745E-01 -4.609155161086E+00 9.694281804253E+01 7.222356155868E+01 4.229497750755E+02
 5.365484429417E+00 1.086365045143E+02 -2.120913499376E+03 1.825402314971E+00 -7.492208847278E+01 2.254298755686E+03
 -5.879037988703E+01 8.777266568020E+01 -4.512692815038E+01 -4.237643118896E+01 5.615418730179E+01 2.049841403685E+01 8.137397249261E+02
 8.858304074108E+01 -1.356719900151E+02 2.327234741808E+01 5.853308122243E+01 -8.324668710423E+01 7.403215410334E+00 2.601148526803E+02 6.067250940722E+02
 -3.072869358130E+01 5.007834768353E+01 1.839378053213E+01 3.443733279451E+01 -4.513235917842E+01 -8.128334375939E+01 -8.854125496179E+02 -7.342868075018E+02 1.989331853674E+03
 -8.637862768853E+01 -1.249067804684E+02 2.364782362348E+01 -8.737101713807E+01 -1.163480396609E+02 -8.942240525369E+00 -1.123845756092E+02 -2.022590816380E+01 3.885116727340E+01 5.460253048638E+02
 -1.214722898716E+02 -1.706405714872E+02 7.221672287551E+01 -1.164695225239E+02 -1.566000246121E+02 -4.820885478265E+01 -1.862109882745E+01 -3.083735268392E+00 2.831067480854E+01 -7.447087871718E+01 6.972355989462E+02
 5.095077379327E+01 7.760632787154E+01 3.246247453186E+00 -6.253961935123E+01 -8.684473680515E+01 -1.050416079854E+02 -7.838170250608E+00 3.686706728066E+01 -3.762266837519E+01 -6.613707530571E+02 6.652409611420E+02 2.172292997196E+03
 -2.322955771537E+02 8.347746545641E+01 7.693247598745E+01 -1.400147756033E+02 5.749600040041E+01 -1.339416811867E+01 -2.646058952261E+01 -7.483149372867E+00 3.841016873395E+01 -2.736293240077E+01 3.339227327845E+01 3.485556957299E+01 5.983887106788E+02
 8.358694701369E+01 -2.851289885480E+01 -2.597154767054E+00 5.580418993992E+01 -2.472361090129E+01 -9.617722269925E+00 -7.624261336922E+00 2.240027915244E+01 -2.099167995421E+01 4.013818619599E+01 -4.740211007355E+01 -2.323382858274E+01 1.878311638048E+02 8.134021807486E+02
 8.130071125755E+01 -2.505994239788E+01 1.109595447602E+01 -6.600693894480E+01 2.155639178975E+01 -9.224446287710E+01 -1.675462134262E+01 4.388697608085E+01 -3.883666576686E+01 3.830176707935E+01 3.416654645397E+01 -4.450004616604E+01 3.557569279403E+02 1.011820576933E+03 2.117544652158E+03
 -1.671347058979E+00 -1.219104162310E+01 1.941690410814E+01 -1.723899934314E+00 -6.891070338244E+00 -1.748853902935E+01 -1.433936642319E+01 1.970110493989E+01 -1.028117293241E+01 1.452225621082E+01 1.999932560616E+01 -1.316905145913E+01 -3.643087775682E+01 -4.680032920575E+01 -1.230866076631E+01 9.768413018325E+02
 -1.566687117729E+01 -2.714193207368E+02 -7.873305848101E+01 -7.806535391872E+00 -1.327981882308E+02 1.108546572764E-01 2.345325145396E+01 1.233384462923E+01 -4.138853596966E+01 2.441007143410E+01 -9.801791583841E+00 -3.993457360651E+01 -4.509868534995E+01 -4.967777870097E+01 -4.609295816291E+01 -8.844477860673E+01 5.039176278143E+02
 -6.313687459231E+00 -8.652702984142E+01 4.970152616953E+00 -1.288701888907E-01 5.396590176342E+01 -8.344243209880E+01 -1.204484978336E+01 3.878677494274E+01 -3.739423849423E+01 3.659283466942E+01 2.787394510587E+01 -4.177952162397E+01 3.891163124995E+01 -2.160865763225E+01 -4.276242780691E+01 1.075819663055E+03 -9.226374751981E+00 1.845332885746E+03
 -2.509221052984E+02 -6.211805468360E+01 -7.312358414144E+01 -2.061396675483E+02 -6.360127391679E+01 1.558825237899E+01 6.453298099170E+00 -4.223441427548E+00 -4.708797918347E+01 3.247992695446E+01 2.885193729916E-01 -4.723092005719E+01 7.387034327783E+00 -2.706141876485E+01 -5.391044945947E+01 -9.076987635093E+01 4.019910021289E+01 -5.187426228937E+01 5.236655915927E+02
 -6.674212587639E+01 -1.882555383924E+01 -4.610377905742E+01 -6.188230190379E+01 -2.017872463869E+01 2.661653040041E+01 -7.393216553980E+00 -9.360540152142E+01 -9.100281490627E+00 -5.458330041457E+00 -2.110165330745E+01 -8.282850347224E-01 -2.464221839278E+01 -1.567332630666E+00 -4.390713988895E+00 4.388080464347E+01 -2.142729373260E+01 -1.996404841151E-01 3.962052419041E+01 8.116640073140E+02
 -9.722344501718E+01 -2.083363964948E+01 -2.026702423121E-01 8.468703031461E+01 2.611200245225E+01 -9.886328869077E+01 -9.827255215383E+00 3.556859897619E+01 -4.288146232018E+01 3.938365881343E+01 2.850030496861E+01 -4.594695416103E+01 4.016162558252E+01 -2.513023565877E+01 -4.734651802196E+01 -1.454892512550E+01 -4.116451049740E+01 -4.310764366439E+01 1.524411790644E+02 -9.623444124038E+02 2.127419438755E+03
 -1.298125642182E+01 -3.814723490875E+01 -1.873406090515E+01 4.651152500686E-01 -1.010789619539E+00 1.865861371751E+01 -1.070168353844E+02 -2.545165108955E+01 -5.434834698513E+01 -2.656939519898E+02 2.305570272341E+02 7.392175929769E+02 -2.671147217033E+00 9.919816201236E+00 1.675316123663E+01 6.172530245972E+00 3.895617286403E+00 1.238463788104E+01 6.283598843165E+00 -4.460038298819E+00 1.338908033290E+01 1.156081715994E+03
 -3.508226758826E+01 -1.088361506049E+02 -5.454724470508E+01 -4.669679027216E-01 -1.706689617466E-01 4.949665126852E+01 -2.861384835554E+01 -1.941063780593E+01 2.398576313671E+01 2.224128622488E+02 -2.296605692051E+02 -6.675305644532E+02 -3.572116527712E+00 2.397127005229E+01 4.647495844557E+01 2.049002280707E+01 9.446148307400E+00 3.873896823067E+01 1.987156889516E+01 -1.533812632031E+01 4.115791027254E+01 -1.741609409087E+02 5.764942528945E+02
 -8.498395633767E+00 -3.061406070497E+01 -1.055400802426E+01 -1.436575565708E+00 6.991059368218E-01 -6.272130582237E+00 -6.403039947415E+01 -6.488547582347E+00 -4.478388004430E+01 7.390479334838E+02 -6.712290159782E+02 -2.090413253482E+03 2.754905839594E+00 1.264089277239E+00 3.962116781599E+00 7.481893025271E-01 -9.891660741814E-01 7.133575689435E-01 4.068765840249E-01 -1.023512144941E+00 9.897590326051E-01 -1.716328622279E+03 5.415799483448E+02 4.082396499171E+03
 -1.521923372854E+02 -2.108720733423E+00 -6.127225560321E+01 -8.068080679971E-01 2.617677512268E+00 4.751046078540E+01 -1.765945723356E+01 -1.398982771592E+01 3.722339088913E+01 -4.409593536866E+01 4.124177267365E+01 5.351723255250E+00 -8.440673958684E+01 -2.100524773641E+02 -3.818188723996E+02 2.398422304934E+01 3.781203093690E+00 4.083222478574E+01 1.464640220651E+01 -1.818918888326E+01 3.970378676045E+01 -2.078753994704E+01 7.470777111702E+00 6.264709578045E+00 5.064332125151E+02
 2.210532293948E+00 -1.505030036784E+00 1.015795266305E+00 9.109949609252E-01 2.558836353098E+00 -4.847383536750E+00 -3.812119425558E-01 -7.000179509446E-02 -1.433882046953E-01 4.025541435227E+01 -6.257687095864E+01 4.827505296733E+01 -2.094473975841E+02 -6.066537036140E+02 -1.109412503281E+03 -1.014130600161E+00 -1.718968505404E+00 -1.841266404754E+00 -5.311585444794E-01 -5.678172601901E-01 9.091265003964E-02 1.223294789581E+01 -2.779115587100E+01 2.763357750221E+00 2.215181124281E+01 1.446521415066E+03
 -3.864206124561E+01 -3.060569326358E+00 -1.339446240362E+01 1.620391503782E+00 4.711116648247E+00 -6.121644303677E+00 -2.468328891668E-01 -1.409229548216E+00 1.035517950386E+00 -2.385418620611E+01 4.576695280898E+01 -3.772383077354E+01 -3.849076987318E+02 -1.107758176894E+03 -2.026206172788E+03 2.085772473154E+00 -5.163775882573E-01 2.567018111625E+00 4.037039826708E-01 -4.012235020778E-01 6.948429360211E-01 -6.714130077551E+00 -5.150674879355E+00 8.839691461339E-02 5.272723108837E+01 2.163411649968E+03 4.152248402170E+03
 -1.549565208955E+01 4.408711291109E+01 -2.185268034213E+01 2.733307074600E+00 1.384849004437E+00 1.242344942236E+01 -3.578596434561E+00 -5.806184062828E+00 1.107310968320E+01 -7.770394372021E+00 -1.127348056271E+00 1.115841875509E+01 -6.351049042217E+01 -6.659358466530E+01 7.504297893428E+01 -7.536610094335E+02 2.536992607782E+01 -1.155443464011E+03 6.505117934935E+00 -2.328369279158E+00 1.003429065894E+01 -2.480429713179E+00 -5.313245115109E+00 3.365859820660E-01 -2.309415493813E+01 -1.559000793375E+01 5.912120799726E+00 1.235090139974E+03
 4.631704038820E+01 -1.323860177783E+02 5.979165428285E+01 -9.574834816519E-02 -2.684849005569E+00 -5.216805008986E+01 1.489836597371E+01 1.725320168755E+01 -3.824253286331E+01 2.455864350504E+01 -1.669530549370E+00 -3.829749480214E+01 -6.436172877294E+01 -1.009885840125E+02 3.070273295175E+01 1.890582348403E+01 -1.331533357412E+01 1.815648376766E+01 -2.004531210372E+01 1.804294266486E+01 -4.434856768829E+01 5.625572959364E+00 1.515812355434E+01 -4.034322899618E-01 -1.176990287936E+01 -3.308011175268E+01 -3.868961773643E+00 2.053428917959E+02 5.914513595263E+02
 -1.281997545700E+01 3.487801600550E+01 -1.020388196678E+01 4.657015593729E+00 1.863600076686E+00 -1.172227660625E+01 -7.095836848591E-02 2.296399083296E+00 -3.184516086275E+00 1.357777385316E+00 5.581417681554E-01 -3.030767799646E+00 6.748140008268E+01 6.350344558572E+01 -7.150598803283E+01 -1.150709468690E+03 2.555715861718E+01 -1.774365322253E+03 -2.864840621963E-01 1.323196579869E+00 -3.033605445192E+00 3.576420191112E-01 2.007024521941E+00 -1.770712562810E-02 -3.920458927647E+00 2.696960951221E+00 -4.658248458493E-01 1.781067042834E+03 6.032800546916E+02 4.026756735478E+03
 -1.088771172522E+02 -6.818337086536E+01 5.338048725649E+01 -2.202322711542E+00 -2.627120415746E+00 -4.644689265498E+01 1.320192879389E+01 1.783075773107E+01 -3.651131425369E+01 2.199114460227E+01 -1.559974921638E-01 -3.331102907486E+01 4.054200316074E+00 -1.922631238175E+01 -3.840008293831E+01 -1.110874321417E+02 3.603043190531E+01 3.346861044965E+01 -3.549698630864E+01 9.112782563578E+01 -1.923678425467E+02 4.927565982522E+00 1.445931134117E+01 3.910598544605E-02 1.113636901966E+01 -1.445772116761E-01 6.517227361541E-01 -1.326649398347E+01 -6.008572325431E+00 -3.269560560637E+00 7.712213375326E+02
 -6.905365511445E+01 -4.526815360001E+01 3.054045638080E+01 -2.045828288282E+00 -5.343567314013E-01 -2.482561906694E+01 1.540379241133E+01 5.563473785574E+00 -2.365397136331E+01 1.297953912318E+01 -6.082429780431E+00 -2.235076002739E+01 -3.445765439794E+00 -1.333585788380E+01 -2.635850084005E+01 3.464840897777E+01 -2.145275832828E+01 -5.272322103211E+01 8.963451072199E+01 -5.293055901837E+02 1.037062757859E+03 2.569377575167E+00 4.911804612900E+00 -4.798428738804E-01 2.464160260407E+00 -7.727235549154E-01 -1.023263464011E-01 3.945174434345E+00 -1.043780553184E+01 -6.987335059715E+00 -3.893632532418E+02 1.145763986095E+03
 2.986371274353E+01 2.199510193201E+01 -1.462374075700E+01 9.268485601025E-01 -1.956770804784E+00 -2.150823632771E+00 -3.157209316721E+00 -2.917225546393E+00 6.255239460077E+00 -2.938319424247E+00 -1.995525178116E+00 3.483244445126E+00 -3.635787331804E+00 2.455131830779E+00 3.930449705233E+00 6.263753982824E+01 -2.856833063421E+01 -4.650293067788E+01 -1.819899133623E+02 1.039761591124E+03 -2.031936303236E+03 -1.377171205693E+00 -3.081926288193E+00 -1.622213258327E-01 -3.286398183367E+00 1.501203631948E-01 -1.260358942059E-01 9.597208391338E-01 8.995584088234E+00 9.039547856407E-01 1.021655741966E+03 -1.708124380748E+03 4.069002351969E+03
 -8.450554365647E+01 6.121301868050E+01 4.840057088802E+01 -5.643958740290E-01 5.455933928227E-01 -4.066390494512E+01 -4.551050855790E+02 -3.801669366267E+02 9.299438302550E+02 2.057615607640E+01 -2.121906386315E+00 -3.255010048639E+01 1.790915071084E+00 -1.888153666045E+01 -3.673143295207E+01 -1.745124709633E+01 -6.489993788336E+00 -3.214522744887E+01 -1.434845474883E+01 3.563177537955E+00 -3.854720445337E+01 -1.855596423058E+01 2.440699461837E+00 1.297628378278E+00 8.992166681426E+00 -6.744043028324E-01 3.086647081279E-01 3.968324544311E+00 -1.175390769645E+01 -1.929893602618E+00 -1.512799986991E+01 -8.756569538660E-01 -2.906099189389E+00 8.042336669047E+02
 6.116556721986E+01 -4.452887563683E+01 -3.004321271519E+01 2.265992351615E+00 2.000883582425E+00 3.158604240808E+01 -3.854197820277E+02 -3.283171106452E+02 7.994740345773E+02 -1.462015119849E+01 6.068575968365E+00 2.531508839654E+01 3.081966805003E+00 1.339569100837E+01 2.651255270425E+01 1.353756681914E+01 -3.981931778529E-01 2.306690378900E+01 2.311499290326E+00 -1.130202380862E+02 -5.412841800402E+01 -5.788074661428E+00 -1.220687379887E+01 -5.265655009101E+00 -3.180317262001E+00 1.733602446271E-02 -5.590303599240E-01 -2.634144704544E+00 5.100341323340E+00 9.861437172789E-01 1.078548509026E+00 -6.224289766067E+01 -2.692639398717E+00 4.323270592355E+02 1.172899714082E+03
 2.807216287311E+01 -1.827068908474E+01 -8.830221984792E+00 -1.959192063909E+00 -3.456779845796E+00 -1.179233664426E+01 9.270833370671E+02 7.978009522027E+02 -1.928497968353E+03 9.847454033161E-01 1.695652604891E+00 -1.470326101103E+00 3.142645560865E+00 -1.662229703252E+00 -3.569620673739E+00 -2.897145541261E-01 -2.308518004050E+00 -3.033913673225E+00 -1.694428998851E+01 -7.159298400560E+01 -6.239063197209E+01 -1.118798200262E+00 9.128143703323E+00 -9.420459115988E-02 3.046932189479E+00 1.574038474524E-01 -3.143850069414E-02 1.262116680568E+00 -2.818781243483E+00 -3.012749071267E-01 3.342006079470E+00 -2.613638041850E+00 -1.880015578017E+00 -1.127696800423E+03 -1.772890664228E+03 4.133441002667E+03
 -9.924366881067E-01 1.271574366385E+00 1.178606727100E+02 4.220953001161E-01 -3.087114636142E-02 5.778840334019E+00 -1.847556370538E+00 2.591874550284E+00 -2.065331790428E+00 -5.267757784504E+00 -3.405359525766E+00 7.340171865989E+00 -5.962855808448E+00 6.009917224419E+00 1.170912173395E+01 2.931667740660E+00 1.900857956933E+00 5.853108850812E+00 -2.859581763877E+00 -1.465294376382E+00 -2.738948423027E+00 -1.700709696397E+01 -4.932598518518E+01 1.241803835671E+01 -1.326434065010E+02 -2.465402068185E-02 3.314145005926E+01 -1.512503590094E+01 3.849416224316E+01 7.763633503015E+00 -8.992048993515E+01 -6.364580507333E+01 -3.104979552071E+01 -1.145364041225E+02 7.729568314243E+01 -3.311647901462E+01 9.948408142617E+02
 5.903466289209E+00 -3.007751917213E+00 -1.665418778466E+02 2.847204063439E-01 1.799790950484E-01 -7.043960575085E+00 2.190972820025E+00 -1.843387716629E+00 7.336503305227E-01 -6.125818762883E-01 -8.693298806522E-01 3.434871540121E+00 4.787906408242E+00 -1.855848905563E+00 -3.395188899052E+00 -2.991329818072E+00 -9.841567591321E+00 -1.022117618915E+01 -6.826531297855E+00 1.038072593354E+00 -8.636417692082E+00 -4.441779668244E+01 -1.284003542642E+02 3.295866887229E+01 5.002183548097E+00 -1.121582189340E+00 -2.987418597363E+00 3.886863030144E+01 -1.082320405169E+02 -3.017910019251E+01 -6.552769377970E+01 -4.585179005465E+01 -2.004752089704E+01 7.745487915470E+01 -5.422936610132E+01 2.631811637184E+01 -4.427090977806E+01 9.999592371058E+02
 1.211843734112E+02 -1.657399240291E+02 -5.421648479200E+03 -1.310242770348E+00 1.876900117253E+00 -6.980023949769E+01 1.166041317784E+01 2.627018274939E+01 -3.573127617241E+01 3.002450247860E+01 3.779802401138E+00 -3.684554392850E+01 8.396970053346E+00 -2.707910095130E+01 -4.211630860404E+01 -2.459805033962E+01 -1.630562521950E+01 -3.705809175124E+01 -2.639739463182E+01 1.900419723685E+01 -4.002984706257E+01 2.185614857409E+01 5.780976061516E+01 -1.162401963608E+01 5.525353135382E+01 -7.092390966402E-01 -1.077102246547E+01 1.877920711940E+01 -5.174781592823E+01 -1.210034189097E+01 -5.298374164695E+01 -2.961821851096E+01 -1.018662944287E+01 -5.501750170726E+01 3.521756596958E+01 -1.610988176591E+01 -8.518545184042E+01 7.143515173801E+01 7.809960389074E+03
 2.824813597186E-01 -1.776768962044E-01 1.097975287288E+00 1.134825310847E-01 5.488624465790E-02 4.417590539658E-02 -2.974729293892E+00 1.593085894090E+00 8.427475780879E-01 3.196117044777E-02 2.877773377846E+00 1.706883130832E+00 2.718760654993E+00 6.419700115958E-01 9.108595948260E-01 9.129644498612E-01 -2.626755427020E+00 3.803183571303E-01 -2.697216731138E+00 -1.436394869922E+00 -3.522528266284E-01 2.368826294207E+00 1.229717399046E+00 -3.672679570893E+00 8.272431673624E-01 -3.808172964268E-01 -6.495187234917E-01 6.095885963989E-01 -2.916560084708E-01 1.361161069936E+00 -1.744554814779E+00 -3.203046928564E+00 1.502431750137E+00 -2.879810961196E+00 2.933936654212E+00 -1.127860442976E+00 -5.918574265520E-01 1.903854657162E+00 -4.152149676852E+01 4.370203215282E+02
 1.467661475404E-01 7.902420146454E-02 2.199331372933E+00 3.442567300235E-02 1.791904596168E-01 2.493402461869E+00 9.473356276121E-01 -2.623970495660E+00 2.664858503103E+00 -2.127782795732E+00 -2.326909211185E+00 1.417745286899E+00 -2.644060926548E+00 2.130547608075E-01 1.197232719578E+00 -6.119924097394E-02 2.308515538631E+00 1.386827276262E+00 3.116159756588E+00 -3.852639947492E-02 3.324586971065E+00 -1.590014459195E+00 -3.484680958423E+00 1.804593934608E+00 -2.823591735050E+00 2.700645302281E+00 4.888230459717E+00 1.287230755628E+00 4.294093898785E-01 1.937286410763E+00 1.068613635560E-01 2.253220601540E+00 -3.514464035584E+00 3.049625253792E+00 -6.364540621412E-01 -2.054432279516E+00 2.038120246983E+00 -6.232981519516E+00 1.142596413454E+02 -8.506774078558E+01 4.674705535085E+02
 1.050832006521E+00 -7.441485079686E+00 -7.061070751313E+01 9.594656467012E-02 1.052327313359E+00 1.077032925641E+02 8.618026207991E+00 -5.498260062081E+01 5.873431985109E+01 -5.447563844225E+01 -3.220081207344E+01 6.437622053465E+01 -4.719565942284E+01 3.729745013299E+01 6.790243874239E+01 2.417714273484E+01 5.355527620444E+01 6.324218690218E+01 6.544680259119E+01 -5.806390069667E+00 6.936825823986E+01 -1.358299472955E+01 -5.198975388521E+01 -8.432980782976E+00 -4.804352420049E+01 -4.532830484985E+00 -8.913614293526E+00 -1.812123047558E+01 4.848150175935E+01 -2.895342904794E+00 4.355008083919E+01 3.048637040483E+01 -1.215472532481E+01 4.434554129951E+01 -2.516672157230E+01 -3.301077149815E+00 -4.702133001153E+01 1.269323777349E+02 -2.100049770600E+03 2.885885849339E+01 -8.283750760159E+01 2.234312561053E+03
 -4.946392842391E+00 -3.257386319593E+00 -8.832759748336E+00 8.389571972823E-01 2.129697445937E+00 4.261332335857E+01 -2.570629474945E+01 -5.829368472787E+00 3.510104767931E+01 -1.872850863691E+01 1.570583427908E+01 3.285827530867E+01 1.921703864905E+01 3.002991266254E+01 5.943646450436E+01 2.333656576110E+01 -7.117033204346E+00 3.491241302777E+01 5.077920956608E+00 -2.356475858397E+01 3.623720520748E+01 -6.765080187929E+01 6.843922243437E+01 -6.433310540205E+01 -6.532620362069E+01 1.920156242112E+02 3.342512630007E+02 -2.285345814361E+00 2.213750731496E-01 -1.576113887494E+00 2.762103717763E+00 -4.795179072776E+00 -3.174486659698E+00 3.498077360693E-02 3.364735486412E+00 3.099326952979E+00 -1.969878843121E+02 -6.570616561906E+01 -6.116047599795E+01 -1.102000488195E+02 -4.598547428847E+01 6.691248923995E+00 5.319538327767E+02
 -3.477660809874E+00 -1.781185090958E+00 -2.537279458169E+01 -5.787816479731E-01 -4.703849167002E-01 3.389846079599E+01 8.035883097965E+00 -1.974385465564E+01 1.818251394662E+01 -2.114118111749E+01 -1.319114813809E+01 2.896994095923E+01 -3.092824311053E+01 1.126203987786E+01 1.935065009706E+01 5.560302344916E+00 2.186357161968E+01 1.948874410667E+01 2.496343135939E+01 2.034347050508E+00 2.259053932185E+01 6.979691677512E+01 -1.010057298660E+02 6.418130490313E+01 1.925835434745E+02 -6.518067465935E+02 -1.142435799144E+03 -8.637448846743E+00 2.265268567672E+01 2.908045611053E+00 1.822539713869E+01 1.263965043345E+01 -1.730958525758E+00 1.721262186244E+01 -1.255310350333E+01 2.075243103358E+00 -6.993085584208E+01 -2.216329276010E+01 1.730596942722E+00 -4.442638103723E+01 -2.029903391166E+01 -1.032116961038E+01 -2.004257504000E+02 8.562689830935E+02
 -6.736895792304E+00 -3.789047594055E+00 -4.180229179240E+01 -9.140463368901E-01 -1.454881143324E-01 6.601562348931E+01 1.738299605473E+01 -4.253166882754E+01 3.726082485931E+01 -4.533066551314E+01 -2.855737658945E+01 3.487486089782E+01 -6.266999343773E+01 2.223588018030E+01 3.926953816152E+01 9.232334269850E+00 4.654999302038E+01 3.825306421518E+01 5.313449256940E+01 5.219931251683E+00 4.570733249592E+01 -7.530903924876E+01 3.027709447447E+01 -6.649331025694E+01 3.320327751532E+02 -1.145207371454E+03 -2.007180621359E+03 -1.522466189805E+01 4.613271903719E+01 6.196136715595E+00 3.745358107506E+01 2.635441881295E+01 -3.970020975195E+00 3.641204377482E+01 -2.600354378512E+01 3.199109683035E+00 -6.897711951617E+01 -1.865802962633E+01 1.726343904364E+01 5.271644381769E+01 1.493946823277E+01 -8.476439946686E+01 -3.099884317626E+02 1.049348293770E+03 2.084422243222E+03
 5.877320538087E-01 3.932352893860E+00 2.496060591903E+01 5.067040283115E-02 5.484653745395E-01 -2.528399221239E+01 -1.495336653126E+01 2.371727502644E+01 -1.856653143798E+01 1.640941798337E+01 3.255313198120E+01 -4.607297610458E+00 2.712659010761E+01 -6.473957039979E+00 -9.949728660061E+00 1.008201361951E+00 -2.727529194722E+01 -1.244760022909E+01 -2.654457956068E+01 -9.758305948038E+00 -1.426543798278E+01 -6.556070015113E+02 -4.138347617864E+01 1.096896721449E+03 2.513919353246E+01 1.885041112223E+00 -5.549517023404E-01 6.081926233634E+00 -2.260179885824E+01 -1.305725986744E+00 -1.887881191508E+01 -1.495650728797E+01 5.851239388231E-01 -1.029825853920E+02 -2.567048489282E+01 -5.697827306405E+01 1.513601957264E+00 3.210321514596E+00 -2.292093778778E+01 -9.443806451227E-02 5.438526927418E+00 1.902947476926E+01 -4.320965670059E+01 5.023975196640E+01 1.300660470637E+01 8.792209827591E+02
 2.523186548717E-01 -8.316680901746E+00 -1.831450811517E+01 9.004428037283E-01 1.889405851244E+00 5.593053783054E+01 -2.165041358368E+01 -1.453035688363E+01 4.168009324265E+01 -3.124144395381E+01 1.260468166768E+01 5.619355188770E+01 2.191697809966E+00 2.411190886617E+01 4.815841189557E+01 2.493245777341E+01 3.551643877846E+00 4.272395056746E+01 1.648687097945E+01 -2.124069912695E+01 4.444065029777E+01 -5.087173870650E+01 -1.988579996382E+01 7.197690756274E+01 -6.533606124094E+00 2.354194501026E-01 -2.373456505549E-02 -4.132469891834E+00 1.094333290205E+01 1.653023924318E+00 1.120012678941E+01 3.306841492722E-01 -2.734116474436E+00 -2.806693261423E+01 -1.799324859447E+01 -2.500454157339E+01 3.546041778891E+00 -2.850709080654E+02 -9.066202397914E+01 7.253874015074E+00 -1.613210355230E+02 5.380905965503E+00 4.914044286138E+01 -5.236942072049E+01 -4.956920755817E+01 1.102495934794E+02 5.350438568421E+02
 -1.181516973256E+00 -1.136771902392E+01 -3.873114498311E+01 5.103956200994E-01 3.850226613648E-01 6.703420359533E+01 4.048145893566E+00 -4.361271293308E+01 3.087125985343E+01 -4.324611801524E+01 -4.094326947514E+01 4.196944244821E+01 -3.757799093069E+01 2.343189700896E+01 4.233719591367E+01 1.367748543028E+01 4.105373209006E+01 4.334696558446E+01 4.775504262181E+01 6.240935994205E-01 4.777559328637E+01 1.100764548395E+03 6.361863110620E+01 -1.847639699049E+03 -4.063037427057E+01 -2.416124926728E+00 1.099665598026E-01 -1.157469447357E+01 3.926660671856E+01 2.927733613168E+00 3.398319953871E+01 2.282210839893E+01 -3.745493491327E+00 -3.033205130172E+01 -4.793964138531E+01 -4.426988559588E+01 -1.569943818866E+00 -1.001035492734E+02 -2.301415116813E+00 2.753542518095E-01 6.125682402774E+01 -8.762211815887E+01 -3.268388277765E+01 -2.169548214221E+01 -4.289973687065E+01 -1.023727280255E+03 -5.185988381010E+01 1.921406537756E+03
 -1.605864596117E+00 1.066916103487E+00 -3.208154508025E+01 -4.549879940509E-01 1.209821656757E+00 5.500800779408E+01 4.235513092339E-01 -2.633658924564E+01 3.420706723895E+01 -2.844278090333E+01 -1.375808727447E+01 3.571114899417E+01 -2.089738840068E+01 2.409305405910E+01 4.753676318164E+01 1.600428671328E+01 2.909326588018E+01 4.270241538875E+01 3.173119891711E+01 -5.368965591963E+00 3.793146528533E+01 -8.325749441787E+00 -2.474605003036E+01 5.937454656697E-01 -4.596818953196E+01 -4.211847473742E+01 2.354508751096E+01 -2.638557428462E+02 -2.288416315402E+02 -7.388799770881E+02 2.228911524015E+01 1.471691491678E+01 -2.189507236006E+00 2.029164688038E+01 -1.324766565561E+01 2.501709741916E+00 -8.937917933774E+01 1.211699822078E+02 -2.212273846279E+01 -9.890448480904E+01 1.289168525770E+02 1.640595667610E+01 -2.517367530377E+01 -3.964193347735E+01 -3.657484082724E+01 1.546984840879E+01 -2.616797626426E+01 -3.775705266223E+01 5.408054127702E+02
 2.758722983780E+00 -2.252014142650E+00 3.602844130778E+00 -1.373829074054E+00 -2.279869720550E+00 -3.321632750217E+01 2.505429823342E+01 2.236927858130E+00 -2.981699974198E+01 1.442618600256E+01 -1.609644833302E+01 -2.748395473761E+01 -1.558670886907E+01 -1.445441965184E+01 -3.097304732025E+01 -3.183219815444E+01 1.525002443985E+01 -4.194975027051E+01 -6.664863071460E-01 2.147426975161E+01 -2.948304372442E+01 1.219829700710E+00 -7.770689771121E-01 -1.345301898319E+00 -4.274837800554E+01 -6.385341160359E+01 4.954514053870E+01 -2.364646350885E+02 -2.414487283539E+02 -6.980649730685E+02 -1.692703309112E-01 7.402593243499E+00 1.220811419960E+00 2.297514370344E+00 -5.591230006696E+00 -1.871006533835E+00 1.189325139078E+02 -1.626898106532E+02 7.122355225678E+01 1.280580511487E+02 -1.725382426830E+02 -5.514686439437E+01 -3.602790678572E+01 -4.970149510419E+01 3.633716447102E+01 -2.296509298544E+01 -7.578390644692E+00 2.842187313853E+01 7.181814666978E+01 7.204010294993E+02
 -2.578322184179E+00 3.666236640075E+00 -3.819257800783E+01 -1.526527665700E+00 5.942192828613E-02 6.548141186568E+01 1.077018675464E+01 -3.905254038320E+01 3.902989522991E+01 -3.624528649631E+01 -2.653789715906E+01 4.337986052015E+01 -3.765915811934E+01 3.232658032604E+01 3.709422730642E+01 3.654643272995E+00 5.477537875431E+01 4.012380795708E+01 4.634284677639E+01 1.317713232414E+00 4.313849565943E+01 -1.217356201329E+01 -3.865457187480E+01 -8.785311597902E-01 -3.036114889356E+00 5.111073256554E+01 -4.340852454247E+01 -7.394381650740E+02 -6.904270331375E+02 -2.111452783477E+03 3.454667758360E+01 2.558169369514E+01 -2.189310553355E+00 3.217578639329E+01 -2.272232912555E+01 2.998329023906E+00 -5.461479736020E+01 7.452825772545E+01 3.316380572009E+00 6.953159557792E+01 -9.791052955684E+01 -1.094565017860E+02 -3.048391590498E+01 -2.036134305511E+01 -4.362559578877E+01 1.367565042482E+01 -4.188651825988E+01 -4.456352338978E+01 6.512510440104E+02 6.977538018379E+02 2.203183897484E+03
 -1.209647521484E+00 -3.654238452500E+00 -1.208311004769E+01 -1.285740662554E+00 -1.246582877936E+00 -7.567988899012E+00 2.775361633905E+01 -1.167556917785E+01 -1.492023983078E+01 -9.305366133934E-02 -2.472573397866E+01 -1.038306744832E+01 -2.720752376806E+01 -7.923908219864E+00 -1.647548254745E+01 -1.393263856387E+01 2.455911945166E+01 -3.968752181194E+00 2.174544615510E+01 3.232486085499E+01 -2.676279024388E+01 -3.756764104825E+00 -1.441313030108E+01 -9.792584241594E-01 -1.810170297114E+01 -8.637949194414E-01 -6.368249262585E-02 -9.635129684303E+01 2.974851607623E+01 5.380203997625E+01 -4.384004153613E+02 3.761441599069E+02 -8.996695557009E+02 1.467315617742E+01 -1.513738795040E+01 3.437723773178E+00 -6.834661406613E+01 -9.934339969248E+01 5.017395354360E+01 -5.062554519270E+01 -6.303431977351E+01 -2.563943689963E+01 -2.674485191340E+01 7.572393282084E+00 1.713375112653E+01 -1.627559079288E+01 -2.237318840470E+01 1.013793951138E+01 -9.601520638083E+01 2.263381128943E+01 8.031774581825E+00 7.857236058005E+02
 -5.091013752182E+00 -1.996989247364E+00 2.950970990052E+01 -6.704543710210E-01 -1.897556519100E+00 -5.770413859805E+01 9.078005856482E+00 2.164807169744E+01 -3.758025745283E+01 2.820863917291E+01 4.687714565284E+00 -3.985939142639E+01 1.108849245559E+01 -2.207754326798E+01 -4.445965553642E+01 -2.096427537314E+01 -1.531590349658E+01 -4.362965876332E+01 -3.146143590681E+01 1.350097746011E+01 -4.947786506365E+01 6.946612787320E+00 2.023628145550E+01 8.188451820119E-02 1.644819980211E+01 -8.542349211495E-01 -1.683312116008E-01 2.432407148722E+01 -2.151437365400E+01 -9.613910688291E+00 3.638709408016E+02 -3.224685625837E+02 7.805953283119E+02 -1.765815417955E+01 7.823211076150E+00 -2.939341848643E+00 -9.598116396065E+01 -1.486649948051E+02 2.695880070327E+01 -6.585675625876E+01 -8.670084195907E+01 5.465551967317E+00 8.436013648070E+00 2.110649066871E+01 4.401614733058E+01 -2.095335173304E+01 1.786249694833E+01 4.072040390255E+01 2.400554646599E+01 -5.795089492683E+00 3.889477599820E+01 -2.361093675285E+02 6.158673773662E+02
 5.757234976376E+00 4.522028392918E-01 -3.402670707219E+01 -2.324642309505E-01 1.424324184182E+00 5.757625338544E+01 1.270939387220E+01 -3.476354139009E+01 3.105457141606E+01 -3.278673341088E+01 -2.592484339836E+01 3.768190617721E+01 -3.512311542002E+01 2.005058206944E+01 3.858905316856E+01 1.924271893819E+01 3.625854102178E+01 2.557697358280E+01 5.625549966580E+01 1.119440559525E+01 3.776823270592E+01 -1.115988089087E+01 -3.561931629466E+01 -1.074937923886E+00 -3.468477265359E+01 -3.843577441688E-01 -8.578984994520E-01 4.705823107825E+01 2.290089663000E+01 -3.604872219317E+01 -9.011209297257E+02 7.820733868651E+02 -1.887090943624E+03 3.306940346321E+01 -2.184680597793E+01 5.601191178640E+00 3.100611073994E+01 5.475370491742E+01 1.307069342803E+01 -3.887033039540E+01 -5.034557194105E+01 -8.213582020990E+01 -3.206479664617E+01 -1.844599657592E+01 -3.675429980783E+01 1.091246115183E+01 -3.940626945939E+01 -3.889099900848E+01 -3.695665490364E+01 2.736311635995E+01 -3.715824279010E+01 8.627722030232E+02 -7.210699421176E+02 1.948697783582E+03